ITEM: TIMESTEP
0
ITEM: NUMBER OF ATOMS
30
ITEM: BOX BOUNDS f f f
0.0 9.615874308924523
0.0 6.986341629387825
0.0 5.22
ITEM: ATOMS id type xu yu zu 
1 0 0.0 0.0 0.0
2 0 4.54 0.0 0.0
3 0 1.4029371544622615 4.317796583979997 0.0
4 0 8.212937154462262 2.6685450454078277 0.0
5 0 5.075874308924523 6.986341629387825 0.0
6 0 9.615874308924523 6.986341629387825 0.0
7 0 0.0 0.0 2.61
8 0 4.54 0.0 2.61
9 0 1.4029371544622615 4.317796583979997 2.61
10 0 8.212937154462262 2.6685450454078277 2.61
11 0 5.075874308924523 6.986341629387825 2.61
12 0 9.615874308924523 6.986341629387825 2.61
13 0 0.0 0.0 5.22
14 0 4.54 0.0 5.22
15 0 1.4029371544622615 4.317796583979997 5.22
16 0 8.212937154462262 2.6685450454078277 5.22
17 0 5.075874308924523 6.986341629387825 5.22
18 0 9.615874308924523 6.986341629387825 5.22
19 1 2.2699999999999996 1.6492515385721687 1.305
20 1 5.407062845537738 2.6685450454078277 1.305
21 1 4.208811463386784 4.317796583979997 1.305
22 1 7.345874308924523 5.337090090815656 1.305
23 1 5.942937154462261 4.317796583979997 3.915
24 1 3.6729371544622613 2.6685450454078277 3.915
25 2 2.27 0.0 3.915
26 2 0.7014685772311308 2.1588982919899986 3.915
27 2 6.3764685772311305 1.3342725227039138 3.915
28 2 3.239405731693392 5.6520691066839115 3.915
29 2 7.345874308924523 6.986341629387825 3.915
30 2 8.914405731693392 4.827443337397826 3.915
