ITEM: TIMESTEP
0
ITEM: NUMBER OF ATOMS
18
ITEM: BOX BOUNDS f f f
0.0 5.942937154462261
0.0 4.317796583979997
0.0 5.22
ITEM: ATOMS id type xu yu zu 
1 0 0.0 0.0 0.0
2 0 4.54 0.0 0.0
3 0 1.4029371544622615 4.317796583979997 0.0
4 0 5.942937154462261 4.317796583979997 0.0
5 0 0.0 0.0 2.61
6 0 4.54 0.0 2.61
7 0 1.4029371544622615 4.317796583979997 2.61
8 0 5.942937154462261 4.317796583979997 2.61
9 0 0.0 0.0 5.22
10 0 4.54 0.0 5.22
11 0 1.4029371544622615 4.317796583979997 5.22
12 0 5.942937154462261 4.317796583979997 5.22
13 1 3.672937154462261 2.6685450454078277 1.305
14 1 2.2700000000000005 1.6492515385721696 3.915
15 2 0.7014685772311308 2.1588982919899986 1.305
16 2 2.27 0.0 1.305
17 2 5.241468577231131 2.1588982919899986 3.915
18 2 3.6729371544622613 4.317796583979997 3.915
