ITEM: TIMESTEP
0
ITEM: NUMBER OF ATOMS
46031
ITEM: BOX BOUNDS f f f
-0.260193725441712 100.3591900846164
-0.1673525556287782 102.08667892046903
-0.2584017546683762 104.64998038503813
ITEM: ATOMS id type xu yu zu 
1 0 68.74200031414233 64.8678875728223 -0.05064925978870589
2 0 72.44478766701641 62.355179178877 0.10076078133362945
3 0 72.25171058709537 67.57528973268113 0.044524734558776216
4 0 76.15115033517468 64.79082288632193 0.03791551719650305
5 0 68.77109449160051 64.78288991434769 2.6236450390443458
6 0 72.36662463508902 62.14730034711816 2.5608801100925676
7 0 72.47469642250424 67.52147713043121 2.773187906332376
8 0 75.87023487963795 65.05541899544792 2.6173046976492835
9 0 68.64696849055244 65.01417375450902 5.254340845301198
10 0 72.29371899122681 62.333416340981536 5.291300645343921
11 0 72.21508782347544 67.57275531118819 5.039032302515
12 0 76.07372282019124 64.70272661593592 5.161789424735447
13 0 67.36146812197202 69.2123727844482 -0.04884808547882124
14 0 71.02221275227521 71.86053211168968 -0.08140798430188602
15 0 67.38906557070567 69.02709684890037 2.538861277843212
16 0 70.92332245388195 71.86314711445992 2.7095479837085445
17 0 67.36739314117689 69.1399348572101 5.131254997080647
18 0 71.18465383042073 71.87797916251085 5.166128532710158
19 0 64.30709011939274 64.88379989003836 0.1548191132462668
20 0 62.730081559451456 69.25299100403333 -0.07774478831446728
21 0 64.2107091333416 64.92237049586609 2.530368195222399
22 0 63.04128514226707 69.11541521585303 2.631739888773197
23 0 64.00094369664716 64.84844179455975 5.276535647462623
24 0 62.82540310599123 69.14827267912506 5.312814631178353
25 0 67.17235664150076 60.64729559541022 -0.07697166906791732
26 0 62.72907644624617 60.54410561802426 -0.04430730235822016
27 0 67.53063593012223 60.6641777316395 2.586356577666621
28 0 62.76292031292888 60.66118221963114 2.5071293074790106
29 0 67.32860347588928 60.479951980068485 5.224824771773268
30 0 62.725188077521146 60.560056978648895 5.097350464803276
31 0 71.08748031189714 57.90806886796167 0.04336589881924781
32 0 71.0267158529428 57.829135142698114 2.77730097504504
33 0 71.14151893263838 57.96352343630718 5.371749696804514
34 0 82.14421051260271 74.60332284984332 -0.06126310511074316
35 0 85.72526713050078 71.57038742464869 0.09811536598687977
36 0 85.7966299353613 77.24564906440072 -0.02296631216567069
37 0 89.1760256848732 74.50740199113741 0.03104746680735985
38 0 82.13850155883871 74.29301410355043 2.626796806951877
39 0 85.74341673148506 71.69114608253642 2.6211333429419756
40 0 85.50366223754862 77.18866340088489 2.578343246127854
41 0 89.25390548674866 74.43868727758294 2.5626153131551073
42 0 81.84323358496903 74.44454122589904 5.052991139949883
43 0 85.716641988393 71.7613027264689 5.109760441122718
44 0 85.81262201951691 77.25503013204461 5.18886807110761
45 0 89.10332093516558 74.48089778451084 5.232102826652703
46 0 80.6325840476005 78.84083579920842 -0.015437290709703658
47 0 84.13715058222965 81.38844527528357 -0.1262099727015286
48 0 80.57260256892994 78.84610084472172 2.7207312756621853
49 0 84.23204240563877 81.54033684531002 2.54568043715375
50 0 80.56133848797086 78.67938632455618 5.131093661086982
51 0 84.16544950026105 81.41165388247127 5.3219492921270275
52 0 77.33544798175238 74.47978813640108 0.01704087068178711
53 0 76.19778718096677 78.81863249519307 -0.07566527347747255
54 0 77.48214072482543 74.52241101242245 2.7912514781258553
55 0 76.08102950067793 78.58302265099591 2.5976164625410156
56 0 77.50260932744798 74.51300031193142 5.119419287542585
57 0 75.97593874768815 78.7196286880135 5.041000405640523
58 0 80.38242951805385 70.10972919064797 0.0520041756545215
59 0 75.97345790493776 70.19875974989864 -0.006957115625113181
60 0 80.52111003781147 70.2454036950219 2.6276485755267927
61 0 76.06385160745413 70.28607467156101 2.6797723651955088
62 0 80.55594962367853 70.15479154312429 5.313221097621027
63 0 75.98349649488354 70.15771218629912 5.2548551492603535
64 0 84.19940057775851 67.57186921949099 0.11000913450021252
65 0 84.19592467111805 67.56975252046911 2.5893276873822924
66 0 84.25858265014938 67.52541138109936 5.204227716685259
67 0 42.325189965583505 73.36024141188571 0.044433078720532516
68 0 45.69593527707477 70.86857498179636 0.021008480114819483
69 0 45.805114306638494 76.07533064576005 0.18134164059155372
70 0 49.710595205790234 73.5775237953323 -0.1776281879920437
71 0 42.44936493014163 73.47725656859791 2.5809203159326053
72 0 45.97613302288207 70.8439944573549 2.547698460883917
73 0 45.834430081446065 75.9747008430868 2.6580929546968632
74 0 49.57654384159168 73.5404740341087 2.543395258673977
75 0 42.238929427190406 73.3987478143228 5.18894557626258
76 0 46.027648153794836 70.83774982585635 5.180445314780821
77 0 45.8959947352285 76.05810996997157 5.131370682442899
78 0 49.55570382636084 73.45887709569188 5.20681668645093
79 0 40.94951228207441 77.65000352777558 0.023116926945888343
80 0 44.62325699566926 80.45979682720514 -0.011974395466791651
81 0 40.789611923580715 77.7897432366234 2.661287522187183
82 0 44.52179322538235 80.5078548789741 2.661683770627338
83 0 40.71866566491923 77.89655844155322 5.320506763334695
84 0 44.57207378291692 80.50505861850974 5.390781046626172
85 0 37.74944660178057 73.4518234855096 -0.09722885436329731
86 0 36.25675672555972 77.57066420326039 0.07335722198407388
87 0 37.618558630860015 73.37229988135016 2.762752684330127
88 0 36.344908082076046 77.74664642943026 2.5684740121796303
89 0 37.71727967405981 73.38591824274832 5.264260720682603
90 0 36.3111891138644 77.68420213718166 5.171518054813188
91 0 40.8920909419558 69.29735866659146 -0.06954097487904275
92 0 36.449242591180706 69.165283714179 -0.0790527656379205
93 0 40.984596615208815 69.25944348264728 2.3967759145583543
94 0 36.49285604120202 69.21053727405543 2.634719643286133
95 0 40.87846752282851 69.09101235165565 5.10362335600227
96 0 36.396564064052605 69.02983398323302 5.226904158456486
97 0 44.619826721334775 66.61480386786748 -0.022224791999084444
98 0 44.40470170140425 66.52871046454412 2.6723198511238198
99 0 44.51080372154527 66.47617388728419 5.269858840075134
100 0 37.28534328493351 88.792321833852 -0.14244537860623582
101 0 40.80514289669293 86.31406635855166 0.0072251925087849726
102 0 40.865769310356676 91.69996371896451 0.03083194137288538
103 0 44.562487512814464 89.06463710714202 0.04398147828224496
104 0 37.331741562755084 89.15208440964474 2.6755075152737433
105 0 40.73654455561534 86.37412274488432 2.5672132492817017
106 0 40.9071970586287 91.62702842005463 2.4983202980098334
107 0 44.44744131885934 88.91108092904145 2.6257833174992817
108 0 37.04346221348051 88.99551199254716 5.239859291030466
109 0 40.93900502298197 86.35626429270465 5.212621104419599
110 0 40.88156868562727 91.54809790206137 5.266531223151607
111 0 44.55550141342994 89.22577574719988 5.325363446046961
112 0 35.79963212959427 93.15109286435916 -0.08594211492400433
113 0 39.49385251147255 95.93469734679631 -0.07209458064735783
114 0 35.58682258890425 93.23318985953705 2.624507629916012
115 0 39.45842759764587 96.08714397457523 2.7708811528456274
116 0 35.759739171805116 93.40499540680955 5.1328495656276205
117 0 39.47294590223133 95.96552149533589 5.226478046746718
118 0 32.744857141337526 88.98189494411184 0.0023558079527444768
119 0 31.350283556606087 93.4359167913969 0.02326615877732776
120 0 32.71416886645078 88.92980560986909 2.488945745999139
121 0 31.364236343627187 93.20537747266073 2.6339854948035653
122 0 32.795065977176996 89.04229365787685 5.267056499826965
123 0 31.397535716700983 93.55639672457372 5.171251491696887
124 0 35.99898746666039 84.80234659702543 -0.1368253305991164
125 0 31.275982819783874 84.78188215330252 -0.05489449376006319
126 0 35.75443717452436 84.67022752019636 2.5246581118624767
127 0 31.247622895214352 84.71819153792093 2.5039181719620784
128 0 35.75279331926343 84.61360215791258 5.165551496334414
129 0 31.399326233456254 84.71516918773796 5.267767670659104
130 0 39.52235358490459 82.07261028196802 0.09384074898460802
131 0 39.60924604919378 82.09989916018668 2.5818993361262566
132 0 39.54825070275275 82.21479365211673 5.322254685545753
133 0 26.050936964239977 51.04887961087218 0.22034252590634254
134 0 29.663167732029358 48.328770977651075 0.17225093765234042
135 0 29.659615948722234 53.59086866863194 0.04209017510208741
136 0 33.20806262237817 51.097065873449225 -0.1767755945995533
137 0 26.015219537625057 50.95565625953794 2.734726951829017
138 0 29.549394872948145 48.28104422604921 2.7987284810312003
139 0 29.566652680253917 53.630863480168514 2.464487509329812
140 0 33.2240227034782 50.91287306965399 2.7737574848333164
141 0 26.045772487539633 50.89626356732415 5.161175195162346
142 0 29.739373008180667 48.39845814530651 5.11404512864649
143 0 29.600178261232674 53.62112801876263 5.26195795753135
144 0 33.17785399567861 50.945182029596815 5.269759494750382
145 0 24.525823273446974 55.25238872620978 -0.030382553564336993
146 0 28.084047856800762 57.99318561413102 0.19571839561109514
147 0 24.411235186696572 55.267310051858004 2.5780009241853308
148 0 28.298531995618735 57.97037888321432 2.5000261718356187
149 0 24.615566002736166 55.2289111911394 5.179486663638014
150 0 28.212057470980895 57.92575178016375 5.077980627979787
151 0 21.429755760867323 50.96220796050482 0.11529088447809686
152 0 20.048482375970234 55.28946193215658 0.04129486861394029
153 0 21.27140066797927 51.11637440570252 2.554991830776447
154 0 19.823330852426324 55.37804312461226 2.710253501809481
155 0 21.412114700274277 50.894619158131036 5.224107296830359
156 0 20.109520195771104 55.07743809060458 5.292367546499271
157 0 24.320734855285867 46.75329436965425 0.03717695257785136
158 0 20.080266584208132 46.69534432979917 -0.12326048737570416
159 0 24.449128457035645 46.63244124075451 2.591246799726941
160 0 20.063192995903353 46.72413814709079 2.6302160163371564
161 0 24.495481612184477 46.78457107725883 5.125137669144241
162 0 20.25453236444885 46.70250182231915 5.176126557385195
163 0 28.085939249954684 43.92616917858256 0.12451993614202922
164 0 28.095160701896393 44.01316962938824 2.7464791738218017
165 0 28.28063138283838 44.01534087058153 5.169403558186751
166 0 9.610542432430698 50.96036405665833 0.06297153465943793
167 0 13.167392578658342 48.317973672426085 -0.0977980117679016
168 0 13.331684502234054 53.621448835195345 0.006629263944912584
169 0 16.757254012551734 50.94571616144573 -0.029082924383312163
170 0 9.703399957894352 50.974189145940336 2.678188476611283
171 0 13.31702608415367 48.22095145428884 2.6379281369526923
172 0 13.127960595059921 53.60186397615517 2.628464869936979
173 0 16.917020304811594 51.02842216842633 2.6370978175790256
174 0 9.56467074358368 51.09269061894797 5.127736798749086
175 0 13.188961270513996 48.268332238239445 5.122459315870083
176 0 13.200151690372083 53.53946695263188 5.162976036621452
177 0 16.984100920939902 50.881036419784735 5.222057264944335
178 0 8.154086498311608 55.223406004275496 -0.06815930999249294
179 0 11.902311373348759 57.916310818025345 -0.004602945805700734
180 0 8.279893089557984 55.175834353424094 2.5290748604567117
181 0 11.854550725399685 57.977788514416325 2.452732377720873
182 0 8.139243345779285 55.32129467853078 5.313497465511926
183 0 11.839941662278568 57.83292873883421 5.282094781610487
184 0 5.061718325944525 50.89837440211164 -0.06458271133005127
185 0 3.6610431972574866 55.25173172957799 -0.20280611651642666
186 0 5.1445490504364715 50.6762462202094 2.64470197413395
187 0 3.5985330744165895 55.20660586696152 2.668937666751043
188 0 4.893657447885051 51.02950926583962 5.345472630933722
189 0 3.6530865696791315 55.407606738836655 5.00814771810489
190 0 8.270317699794612 46.62708038538563 -0.12813553200868694
191 0 3.7118994590517644 46.57612262345439 0.029759818102131196
192 0 8.190459241247279 46.6589911956147 2.6883788338135486
193 0 3.713389278697973 46.763620498300206 2.846249258548909
194 0 8.110961619155328 46.75218527990804 5.136869595168656
195 0 3.7681020071870805 46.760811363864434 5.212174984332801
196 0 11.886983287618591 43.93298054153862 -0.18323968780961852
197 0 11.788452160303166 44.0001368441347 2.4927586596141023
198 0 11.837400147666374 43.867590451037515 5.198013266976039
199 0 42.13720928113945 28.386950360620688 0.0913058922569666
200 0 46.08697780588183 25.786714643552983 0.16807143058491145
201 0 45.98639864539629 30.99213464465681 0.08498004713565925
202 0 49.68936471171113 28.41773775839117 0.08503308917176568
203 0 42.41164025305119 28.508979644771593 2.5880844244238017
204 0 45.89396761601671 25.691340389909808 2.5534382324444636
205 0 46.06005382937978 31.119574136957002 2.595361651989162
206 0 49.63349580462269 28.30786475551802 2.6591532576195585
207 0 42.39090738312002 28.464975361312916 5.228288558581847
208 0 46.054503715897425 25.755913376169236 5.187591796297614
209 0 45.9889385674265 31.16227321055033 5.192589157444139
210 0 49.43041482571286 28.43849959760085 5.12566299938651
211 0 40.872493617850914 32.62990236651284 -0.12606405717493424
212 0 44.74961334179442 35.465710075339324 -0.011694730483267699
213 0 40.82777149180774 32.924419935796784 2.6924574580709435
214 0 44.4855674447224 35.36527464080344 2.4968380280721028
215 0 40.95753021048548 32.88492151591654 5.0518507838853095
216 0 44.451894613434646 35.42221372782557 5.30702276918624
217 0 37.615095686506734 28.679745540599846 -0.08774865556524987
218 0 36.310726219731635 32.80392789692559 -0.036815996111503595
219 0 37.67296676103285 28.54966238654679 2.5331818778630955
220 0 36.431485633518676 32.738351189465625 2.5451360882013034
221 0 37.754687599530214 28.31810530898027 5.248345767744376
222 0 36.368522475258764 32.78678385494615 5.134260497997564
223 0 40.78275123777136 24.256386341347827 0.02726467809744778
224 0 36.4556075013723 24.105209221350446 0.0015421135703802792
225 0 40.790257636054314 24.011412819195982 2.639444314063316
226 0 36.33235363032917 23.998042412305004 2.667819154617003
227 0 40.79148172470814 24.078210718025147 5.289352880575855
228 0 36.25149884869057 24.119078440800806 5.210108676274481
229 0 44.4101187041709 21.474983368255604 -0.005638977668423377
230 0 44.73076427553462 21.59743390574607 2.6734757990220497
231 0 44.638448787942146 21.382815377543487 5.236586730584309
232 0 37.18821396937778 12.89940264505567 -0.09265575873810299
233 0 41.02581349619019 10.207998304794367 0.07289669579864175
234 0 40.698065856372196 15.677760841964831 0.14311631939359462
235 0 44.658298462744696 12.944341680512968 0.02205947226237655
236 0 37.293104158802365 12.814940432360341 2.7111169676002063
237 0 40.80354597356742 10.24342922140933 2.698644445059272
238 0 40.887083813551556 15.559526380399104 2.771808894602504
239 0 44.5155677208824 12.9625674152651 2.5143115153570306
240 0 37.19801230279471 12.987587414470903 5.252308561257108
241 0 40.9482003649646 10.335988633534816 5.138924074116695
242 0 40.864721688557225 15.568371805262977 5.1912465427727055
243 0 44.7247501071386 12.841616202349122 5.048828597614493
244 0 35.830579577017794 17.22962045058096 -0.04512106476930886
245 0 39.393330925818816 19.88952524726059 0.033700831045149315
246 0 35.76001359694266 17.18333865415373 2.484398128035161
247 0 39.48848697671971 20.106300452430244 2.555103995956381
248 0 35.76657687362863 17.22407884580794 5.286195035719775
249 0 39.548001661919514 19.803245610010123 5.227846051700934
250 0 32.76562202023311 12.97096524893882 0.01847205953541953
251 0 31.2427041941184 17.230327975696653 -0.11313348722589775
252 0 32.81997748214656 13.025844536217235 2.6900613898266865
253 0 31.30712354293062 17.181005005860325 2.73168235109869
254 0 32.60350434277136 12.684457842983107 5.11748382673183
255 0 31.284368565158843 17.29184859108042 5.251991516023913
256 0 35.91176120364269 8.545988892625111 0.0826417438704076
257 0 31.25731850711994 8.489850272902224 -0.2584017546683762
258 0 35.88386398102785 8.655677178188048 2.578527977420803
259 0 31.097153952507558 8.550903231996166 2.618563804972564
260 0 35.920481455017914 8.598539737721698 5.073604723263771
261 0 31.238988581616677 8.639617140533986 5.23774239599635
262 0 39.43657467652953 6.027807812238533 -0.07686153583063758
263 0 39.56232157957854 6.025384527331606 2.650560322025767
264 0 39.49245011596375 5.873527171974597 5.115317036933631
265 0 68.62499573886694 36.944858471352305 -0.0743436173081344
266 0 72.37046932730922 34.450421297776195 -0.08757602247747613
267 0 72.45594885400001 39.77982100853395 0.2146228147104749
268 0 75.94437542142384 37.00341024285416 -0.014042119590974955
269 0 68.61264557966113 37.08868351271269 2.6866991139009775
270 0 72.42507496213614 34.40535656991763 2.5231963826003025
271 0 72.28938056426028 39.71645532360632 2.527810491300726
272 0 75.953579256494 36.89541129949521 2.677626787316612
273 0 68.67869178669368 37.11351823058898 5.235580689071707
274 0 72.49677242977631 34.24610799504587 5.1236989414634335
275 0 72.3291387356967 39.71185998550074 5.123497110084451
276 0 75.9030079818965 37.15906813227869 5.212838326958323
277 0 67.35192600705898 41.247513529984744 0.2746634122678316
278 0 71.0532317052151 44.061961202249435 0.00038823363875013236
279 0 67.43300845603493 41.33559102599998 2.560303147331447
280 0 70.98214717639624 44.01657461156769 2.693585315340719
281 0 67.50756124047658 41.28219903925389 5.211101954622988
282 0 71.09605481405414 44.040788626636164 5.1101700961495755
283 0 64.10433956057335 37.011651862218585 0.06311054928604092
284 0 62.84190670421602 41.288516307280254 -0.017805430569499566
285 0 64.27516943141734 37.08294665397872 2.6975286543059847
286 0 62.84310140861339 41.394037086031794 2.573339471185132
287 0 64.21406452521501 37.073485166867506 5.21582975035539
288 0 62.657682239654456 41.29918975859208 5.266954396337209
289 0 67.25875959635435 32.89815824301122 -0.03787082567980449
290 0 63.01612186372742 32.754882427519284 0.05669518326316099
291 0 67.44740209997667 32.76886707853948 2.5640207004641637
292 0 62.893849437620254 32.81144663933542 2.4939012994836083
293 0 67.29085223020047 32.74432999405833 5.266436196028657
294 0 62.73550609105334 32.769096204793954 5.261383948318246
295 0 70.90942056628393 30.139822217204745 -0.08374622379994631
296 0 71.10444529396207 30.118488607689244 2.5856982546994223
297 0 71.14721496616187 30.04466743705468 5.2859837098062785
298 0 81.8689616871451 27.434858284709406 0.08138606095383588
299 0 85.70765976507501 24.730760575270985 -0.18506596709418552
300 0 85.43384509059342 30.149494328792922 -0.005443028937148701
301 0 89.36522946722506 27.33767955100191 0.0071574935381672556
302 0 81.89376325264456 27.464876774988426 2.6101067762030072
303 0 85.78472396616586 24.694769621615915 2.372226183145665
304 0 85.54214995755882 29.957760108636734 2.66701402101674
305 0 89.15315864615923 27.59814086847807 2.644878578019134
306 0 82.09511283100177 27.440245564535445 5.278870255255702
307 0 85.71892877023896 24.988426597528502 5.134052255472307
308 0 85.78895420638705 29.979612785300176 5.156550229623202
309 0 89.28879008992804 27.56976395111307 5.311217346841437
310 0 80.7815140839544 31.77057485472388 -0.008720459003077156
311 0 84.34742621034788 34.44503791225251 -0.014489397105893486
312 0 80.50787375239557 31.708730682958553 2.446880034441816
313 0 84.22797554474533 34.401198568729804 2.5555949903088613
314 0 80.63775421667688 31.656277644502794 5.357686475274978
315 0 84.29384991826673 34.337453037025185 5.209921525837343
316 0 77.43365431708057 27.451453240750862 0.09520512813534837
317 0 76.09070639698986 31.841568315900304 -0.022540806353067957
318 0 77.42181672028455 27.457858489738403 2.588100714808259
319 0 75.9477707085377 31.664003446959956 2.371663950796589
320 0 77.31819796288272 27.35602142262362 5.366160311079592
321 0 76.05293024958344 31.816575542350726 5.224997749217297
322 0 80.50790332205722 23.02215263733742 -0.13773059726287706
323 0 75.90088317239244 23.08041911131367 -0.015788371254409857
324 0 80.59529673714144 22.963445442671574 2.7463338168871525
325 0 76.16761585940269 23.36079245454552 2.711772995298164
326 0 80.52145446469717 23.160778439504462 5.259646898582601
327 0 76.02369946696717 23.183314436089795 5.253567925340524
328 0 84.17071412134985 20.62396982306041 -0.028750407273062308
329 0 84.25439963062368 20.579177464452126 2.561789629984836
330 0 84.30543558332596 20.559634238594835 5.209381396990795
331 0 61.41639214862886 50.977138403182735 0.1253974552758516
332 0 65.85952454143322 51.119720832823425 -0.052688466740187616
333 0 62.95703622566281 55.37263137809815 -0.0750223541860897
334 0 67.45547584926824 55.208341025728075 -0.04123217470116278
335 0 61.24685164611338 51.01404586324466 2.632710074838891
336 0 66.00945047079996 50.85548236443135 2.712673955390023
337 0 62.742144963084236 55.16046379041874 2.62057613162012
338 0 67.4113749207603 55.275480932683585 2.7776595558980945
339 0 61.40509898641467 51.05268601149341 5.1874829172973715
340 0 66.02212819510716 51.064274636629925 5.262028092233354
341 0 62.867030658850275 55.30271656313267 5.195177880795516
342 0 67.39534449169064 55.309423697934434 5.189331644204902
343 0 57.83978917647644 53.65791921793249 -0.09996777227906005
344 0 59.16082086648771 57.879986439417515 -0.055126093928118715
345 0 57.81347835392169 53.667088327196915 2.6007028197519815
346 0 59.08267071760938 57.807519134626595 2.6184991839140777
347 0 57.65505122681415 53.71231087098099 5.214043503065009
348 0 59.25431275248642 58.03134282486273 5.159570921308497
349 0 57.7246327892703 48.382426929794 0.08785980974016934
350 0 54.14000684454585 50.999459866408145 0.05652786273520734
351 0 57.80567064054391 48.28206255943247 2.5460379354447755
352 0 53.93621681333964 51.10358989036395 2.529999121000219
353 0 57.864931390358 48.18251528165476 5.120743025920069
354 0 54.0400978500833 51.03566748410669 5.232580796836809
355 0 62.75569719335073 46.705467870660335 0.01002448580910927
356 0 59.22217536635651 43.967043336587686 0.07341885431121951
357 0 62.77658399056357 46.73247108493848 2.44684456460844
358 0 59.28771032877086 44.012655724340696 2.5901152629218624
359 0 62.97880963092371 46.63596175529363 5.165294559396754
360 0 58.979765824211476 43.97476321841131 5.2360287299011645
361 0 67.55027377229395 46.5008351288692 -0.11541105853783527
362 0 67.39740534326648 46.51134114386373 2.875106810463099
363 0 67.38167338335255 46.644271455173296 5.216327063799452
364 0 77.69172276755337 50.86105234197064 0.0524618958188425
365 0 82.37338536476803 50.95127816798171 -0.13245073641306407
366 0 79.12434913932657 55.24489112875505 -0.010160114661671375
367 0 83.64551967765304 55.27935487754802 -0.10113758379708722
368 0 77.86672395206035 51.1074102433932 2.587579223526213
369 0 82.26845664505622 51.13899826608507 2.4829802947751007
370 0 79.19050859270986 55.13123602776763 2.5015590493573034
371 0 83.65891910708908 55.21796333058181 2.602020701290344
372 0 77.73201434301821 50.770564902280114 5.339360222538666
373 0 82.30379915706929 51.01509010470426 5.14523471116017
374 0 79.21873478350925 55.28403572998281 5.322565787012583
375 0 83.62255360133118 55.26577709225814 5.219990095301041
376 0 74.02991470762592 53.74648621814358 -0.07699241762565764
377 0 75.49887785232106 57.87524244628871 0.08762426758791605
378 0 74.07831417940959 53.815927664760835 2.6997204817814726
379 0 75.4864165085271 57.97344006230182 2.535021659662462
380 0 74.05680654706516 53.51745236721754 5.296159210988432
381 0 75.5470923667057 58.09458089106536 5.249311378645829
382 0 74.1073741537917 48.31896800434183 0.1294681025473311
383 0 70.54362215478905 50.930187904893074 -0.15105237933322804
384 0 74.17899352497062 48.290063275046755 2.5782620661192346
385 0 70.40406971768594 51.140359070986435 2.6961363732504897
386 0 73.9992670499001 48.32579693502372 5.068418620450303
387 0 70.29334883752674 51.10637631784305 5.218460679889912
388 0 79.07774276652165 46.65726897631299 -0.043567732641180475
389 0 75.59796024989923 43.973281167242874 -0.11504876383400184
390 0 79.0204107133821 46.71247764821934 2.601745290512212
391 0 75.57557150051416 44.03608664420619 2.727252956538437
392 0 79.08762959975606 46.725465416778405 5.236170161417619
393 0 75.69163377514546 43.97520533468444 5.18398094407971
394 0 83.59994679394258 46.821381819339564 0.06228596101177718
395 0 83.76159906071099 46.73194910361457 2.694009412713873
396 0 83.79239605523361 46.73029215855975 5.172440394433518
397 0 94.27044105910784 50.97559776201569 0.018577884406714606
398 0 98.57791259131359 50.832248816395655 -0.0753173811724495
399 0 95.4510345785361 55.37566076612954 -0.028732556016256443
400 0 100.04400072195595 55.31704920594637 0.12904317915730995
401 0 94.19698153761861 51.006875343656716 2.5294310034580203
402 0 98.63339866300147 51.15513386084411 2.720390507015562
403 0 95.533896641053 55.21428641804515 2.645591598641386
404 0 100.11054581852805 55.30636999644654 2.564474132087843
405 0 94.09836156172982 50.851707520450205 5.24903879821219
406 0 98.67334045134078 50.93130980534516 5.196016946236434
407 0 95.60010068047343 55.33489617851053 5.291895019004193
408 0 100.03231482685516 55.39200854692595 5.168550582271406
409 0 90.4640468888498 53.451105342445494 -0.05542165550322438
410 0 91.89406888318277 57.89277410876828 -0.13196223023295123
411 0 90.4582952074916 53.64527047864931 2.727975010631583
412 0 91.75568167682603 57.97677789755797 2.7730333503453846
413 0 90.30788089282618 53.5833577301797 5.254515230214264
414 0 91.89407281347646 57.91455958582966 5.272698399101351
415 0 90.44626480897564 48.29867269734401 -0.10318308406274139
416 0 86.78837683399738 50.965368675805536 -0.0792993968165104
417 0 90.37403374951555 48.27527591625363 2.6966635401374686
418 0 86.82917762929435 50.818152178088276 2.506577290854575
419 0 90.5386056147044 48.26374298133903 5.307696921485491
420 0 86.89933679802644 50.887425401682535 5.230387566609575
421 0 95.68170973168837 46.553610376728486 0.030806114140745515
422 0 91.88450571232745 44.03137964064985 -0.023623295566976264
423 0 95.4785280137078 46.58370455481299 2.6600010437426045
424 0 91.90579353298746 43.81486543529787 2.5866208232228365
425 0 95.63101795268197 46.790141962548645 5.262320542508998
426 0 91.86779817990052 44.014592309189304 5.293349788604115
427 0 100.26080763054598 46.741851358364386 0.08957415296900363
428 0 99.99779420541996 46.65873017888506 2.613285307461039
429 0 100.05031263029514 46.46374273419719 5.219941518820742
430 0 53.110004444307435 62.24434840171201 -0.0035027296042764
431 0 57.73037759267374 62.1992368964035 -0.13626174124848564
432 0 54.674072377295516 66.35316998766206 -0.02692903886452634
433 0 59.12269542866336 66.50856727660012 0.0855628395600914
434 0 53.19058241715625 62.25462969733444 2.452858951298499
435 0 57.857060039121656 62.15846105300951 2.652877889038856
436 0 54.841110935796166 66.62440230674486 2.5736610431331775
437 0 59.072884522618175 66.53912440780692 2.662928290107749
438 0 53.20456476179697 62.219018537555186 5.156727613000153
439 0 57.71769684624186 62.49076165771965 5.233005773077319
440 0 54.71952270167043 66.39502838324387 5.3758763641032985
441 0 59.2428249478376 66.41622185570483 5.169814257870892
442 0 49.69439760902758 64.96661768471145 -0.03558553466647234
443 0 50.77732484312934 69.13565858090006 -0.08812462160039104
444 0 49.5859832192202 64.78548104987469 2.6281850268887057
445 0 50.79808703164134 69.08520772768672 2.579408369579848
446 0 49.519032327159266 64.9191475735379 5.228772309631821
447 0 50.866649126586445 69.2525059651367 5.265597723003809
448 0 49.53466208041936 59.42927397375823 0.036430440699137034
449 0 46.115362149087396 62.257792212073575 -0.0395181756728358
450 0 49.60224966239531 59.629448874373765 2.749363740560546
451 0 45.90033788296684 62.14563189640645 2.6017510560290256
452 0 49.80933523280007 59.6468295476695 5.2441879824764115
453 0 46.0347388248018 62.10359501976991 5.322549571394202
454 0 54.63215258885397 57.881668264450894 -0.14581414628014605
455 0 50.99044909952241 55.306595388544615 -0.058190819768316596
456 0 54.72285060532493 57.912204114084034 2.7194810254453587
457 0 50.98406992200124 55.20727984277015 2.6629808322011836
458 0 54.7372258901636 57.92246444196984 5.2877843210148505
459 0 50.91455871913548 55.25723322913083 5.241867450592919
460 0 58.35894628610414 77.6397690673728 -0.07730022341269993
461 0 62.848309886626296 77.94388757089823 0.07908265895794671
462 0 59.68621481849201 82.02878183976095 -0.03615246573427641
463 0 64.1202723498563 81.9671303629689 -0.14564917852743223
464 0 58.187220064393586 77.88071382736587 2.5547368558101833
465 0 62.799256539101115 77.80912214217383 2.528975633136253
466 0 59.73844729895633 82.06031178518509 2.575616937044473
467 0 64.08599138648906 82.03897564216432 2.5623673901944417
468 0 58.48531077440372 77.70657348713063 5.285434069865167
469 0 62.751517573496514 77.7989138787935 5.199543763541465
470 0 59.71739265776666 82.08521536816865 5.392256519739352
471 0 64.22347581554224 82.26001689465015 5.2257905045841335
472 0 54.73762231336735 80.33649171025036 0.02406061742673649
473 0 56.160139697577904 84.78439303552203 0.02670583491384692
474 0 54.53700996211183 80.27656492082852 2.6446294515381683
475 0 56.008679392582124 84.70416806911332 2.447925261346499
476 0 54.62115904930061 80.43045858294569 5.213924429540522
477 0 56.07913688995664 84.73703679331489 5.178197905122479
478 0 54.63719381305127 75.10795212524079 -0.032796173889127644
479 0 51.16891427012837 77.80033549964458 0.14932396050810978
480 0 54.720871280335466 75.0798855145674 2.480770814984103
481 0 50.95057823096582 77.83385813829248 2.5436422566607897
482 0 54.60499941674603 74.96477958358297 5.265412974714965
483 0 50.982226385431396 77.92644291442733 5.081992898455009
484 0 59.67402759165529 73.40031336505754 0.019143680243044015
485 0 55.96095711590466 70.7080525797331 0.035087090289000686
486 0 59.67002268421506 73.32303724199696 2.6141672082008522