ITEM: TIMESTEP
0
ITEM: NUMBER OF ATOMS
46031
ITEM: BOX BOUNDS f f f
9.999999974752427e-07 100.05135321862144
9.999999974752427e-07 101.91624611525373
0.0 104.39999999999999
ITEM: ATOMS id type xu yu zu 
1 0 68.74108277489715 64.86925314565902 5.22
2 0 72.39783958947191 62.212463805297034 5.22
3 0 72.39783958947191 67.526042486021 5.22
4 0 76.05459640404668 64.86925314565902 5.22
5 0 68.74108277489715 64.86925314565902 2.61
6 0 72.39783958947191 62.212463805297034 2.61
7 0 72.39783958947191 67.526042486021 2.61
8 0 76.05459640404668 64.86925314565902 2.61
9 0 68.74108277489715 64.86925314565902 0.0
10 0 72.39783958947191 62.212463805297034 0.0
11 0 72.39783958947191 67.526042486021 0.0
12 0 76.05459640404668 64.86925314565902 0.0
13 0 67.3443259603224 69.1680285993131 5.22
14 0 71.00108277489716 71.82481793967509 5.22
15 0 67.3443259603224 69.1680285993131 2.61
16 0 71.00108277489716 71.82481793967509 2.61
17 0 67.3443259603224 69.1680285993131 0.0
18 0 71.00108277489716 71.82481793967509 0.0
19 0 64.22108277489716 64.86925314565902 5.22
20 0 62.82432596032239 69.16802859931312 5.22
21 0 64.22108277489716 64.86925314565902 2.61
22 0 62.82432596032239 69.16802859931312 2.61
23 0 64.22108277489716 64.86925314565902 0.0
24 0 62.82432596032239 69.16802859931312 0.0
25 0 67.3443259603224 60.57047769200492 5.22
26 0 62.82432596032239 60.57047769200492 5.22
27 0 67.3443259603224 60.57047769200492 2.61
28 0 62.82432596032239 60.57047769200492 2.61
29 0 67.3443259603224 60.57047769200492 0.0
30 0 62.82432596032239 60.57047769200492 0.0
31 0 71.00108277489716 57.91368835164294 5.22
32 0 71.00108277489716 57.91368835164294 2.61
33 0 71.00108277489716 57.91368835164294 0.0
34 0 81.97135321862145 74.48160728003707 5.22
35 0 85.62811003319621 71.82481793967509 5.22
36 0 85.62811003319621 77.13839662039905 5.22
37 0 89.28486684777097 74.48160728003707 5.22
38 0 81.97135321862145 74.48160728003707 2.61
39 0 85.62811003319621 71.82481793967509 2.61
40 0 85.62811003319621 77.13839662039905 2.61
41 0 89.28486684777097 74.48160728003707 2.61
42 0 81.97135321862145 74.48160728003707 0.0
43 0 85.62811003319621 71.82481793967509 0.0
44 0 85.62811003319621 77.13839662039905 0.0
45 0 89.28486684777097 74.48160728003707 0.0
46 0 80.57459640404669 78.78038273369117 5.22
47 0 84.23135321862145 81.43717207405314 5.22
48 0 80.57459640404669 78.78038273369117 2.61
49 0 84.23135321862145 81.43717207405314 2.61
50 0 80.57459640404669 78.78038273369117 0.0
51 0 84.23135321862145 81.43717207405314 0.0
52 0 77.45135321862145 74.48160728003707 5.22
53 0 76.05459640404669 78.78038273369117 5.22
54 0 77.45135321862145 74.48160728003707 2.61
55 0 76.05459640404669 78.78038273369117 2.61
56 0 77.45135321862145 74.48160728003707 0.0
57 0 76.05459640404669 78.78038273369117 0.0
58 0 80.57459640404669 70.18283182638297 5.22
59 0 76.05459640404669 70.18283182638297 5.22
60 0 80.57459640404669 70.18283182638297 2.61
61 0 76.05459640404669 70.18283182638297 2.61
62 0 80.57459640404669 70.18283182638297 0.0
63 0 76.05459640404669 70.18283182638297 0.0
64 0 84.23135321862145 67.526042486021 5.22
65 0 84.23135321862145 67.526042486021 2.61
66 0 84.23135321862145 67.526042486021 0.0
67 0 42.28054188744858 73.4668040529672 5.22
68 0 45.93729870202334 70.81001471260522 5.22
69 0 45.93729870202334 76.12359339332917 5.22
70 0 49.594055516598104 73.4668040529672 5.22
71 0 42.28054188744858 73.4668040529672 2.61
72 0 45.93729870202334 70.81001471260522 2.61
73 0 45.93729870202334 76.12359339332917 2.61
74 0 49.594055516598104 73.4668040529672 2.61
75 0 42.28054188744858 73.4668040529672 0.0
76 0 45.93729870202334 70.81001471260522 0.0
77 0 45.93729870202334 76.12359339332917 0.0
78 0 49.594055516598104 73.4668040529672 0.0
79 0 40.88378507287382 77.7655795066213 5.22
80 0 44.54054188744858 80.42236884698328 5.22
81 0 40.88378507287382 77.7655795066213 2.61
82 0 44.54054188744858 80.42236884698328 2.61
83 0 40.88378507287382 77.7655795066213 0.0
84 0 44.54054188744858 80.42236884698328 0.0
85 0 37.76054188744858 73.4668040529672 5.22
86 0 36.363785072873824 77.7655795066213 5.22
87 0 37.76054188744858 73.4668040529672 2.61
88 0 36.363785072873824 77.7655795066213 2.61
89 0 37.76054188744858 73.4668040529672 0.0
90 0 36.363785072873824 77.7655795066213 0.0
91 0 40.88378507287382 69.1680285993131 5.22
92 0 36.36378507287382 69.16802859931312 5.22
93 0 40.88378507287382 69.1680285993131 2.61
94 0 36.36378507287382 69.16802859931312 2.61
95 0 40.88378507287382 69.1680285993131 0.0
96 0 36.36378507287382 69.16802859931312 0.0
97 0 44.54054188744858 66.51123925895112 5.22
98 0 44.54054188744858 66.51123925895112 2.61
99 0 44.54054188744858 66.51123925895112 0.0
100 0 37.22702825829906 89.01991975429146 5.22
101 0 40.88378507287382 86.3631304139295 5.22
102 0 40.88378507287382 91.67670909465346 5.22
103 0 44.54054188744858 89.01991975429146 5.22
104 0 37.22702825829906 89.01991975429146 2.61
105 0 40.88378507287382 86.3631304139295 2.61
106 0 40.88378507287382 91.67670909465346 2.61
107 0 44.54054188744858 89.01991975429146 2.61
108 0 37.22702825829906 89.01991975429146 0.0
109 0 40.88378507287382 86.3631304139295 0.0
110 0 40.88378507287382 91.67670909465346 0.0
111 0 44.54054188744858 89.01991975429146 0.0
112 0 35.8302714437243 93.31869520794557 5.22
113 0 39.487028258299055 95.97548454830755 5.22
114 0 35.8302714437243 93.31869520794557 2.61
115 0 39.487028258299055 95.97548454830755 2.61
116 0 35.8302714437243 93.31869520794557 0.0
117 0 39.487028258299055 95.97548454830755 0.0
118 0 32.70702825829906 89.01991975429146 5.22
119 0 31.310271443724297 93.31869520794557 5.22
120 0 32.70702825829906 89.01991975429146 2.61
121 0 31.310271443724297 93.31869520794557 2.61
122 0 32.70702825829906 89.01991975429146 0.0
123 0 31.310271443724297 93.31869520794557 0.0
124 0 35.83027144372429 84.72114430063738 5.22
125 0 31.310271443724297 84.72114430063738 5.22
126 0 35.83027144372429 84.72114430063738 2.61
127 0 31.310271443724297 84.72114430063738 2.61
128 0 35.83027144372429 84.72114430063738 0.0
129 0 31.310271443724297 84.72114430063738 0.0
130 0 39.487028258299055 82.0643549602754 5.22
131 0 39.487028258299055 82.0643549602754 2.61
132 0 39.487028258299055 82.0643549602754 0.0
133 0 25.927028258299057 50.95812355762687 5.22
134 0 29.58378507287382 48.301334217264895 5.22
135 0 29.58378507287382 53.61491289798885 5.22
136 0 33.24054188744858 50.95812355762687 5.22
137 0 25.927028258299057 50.95812355762687 2.61
138 0 29.58378507287382 48.301334217264895 2.61
139 0 29.58378507287382 53.61491289798885 2.61
140 0 33.24054188744858 50.95812355762687 2.61
141 0 25.927028258299057 50.95812355762687 0.0
142 0 29.58378507287382 48.301334217264895 0.0
143 0 29.58378507287382 53.61491289798885 0.0
144 0 33.24054188744858 50.95812355762687 0.0
145 0 24.530271443724295 55.256899011280964 5.22
146 0 28.18702825829906 57.913688351642946 5.22
147 0 24.530271443724295 55.256899011280964 2.61
148 0 28.18702825829906 57.913688351642946 2.61
149 0 24.530271443724295 55.256899011280964 0.0
150 0 28.18702825829906 57.913688351642946 0.0
151 0 21.407028258299057 50.95812355762687 5.22
152 0 20.010271443724296 55.256899011280964 5.22
153 0 21.407028258299057 50.95812355762687 2.61
154 0 20.010271443724296 55.256899011280964 2.61
155 0 21.407028258299057 50.95812355762687 0.0
156 0 20.010271443724296 55.256899011280964 0.0
157 0 24.530271443724295 46.659348103972775 5.22
158 0 20.010271443724292 46.65934810397278 5.22
159 0 24.530271443724295 46.659348103972775 2.61
160 0 20.010271443724292 46.65934810397278 2.61
161 0 24.530271443724295 46.659348103972775 0.0
162 0 20.010271443724292 46.65934810397278 0.0
163 0 28.187028258299055 44.0025587636108 5.22
164 0 28.187028258299055 44.0025587636108 2.61
165 0 28.187028258299055 44.0025587636108 0.0
166 0 9.573514629149528 50.95812355762688 5.22
167 0 13.230271443724291 48.301334217264895 5.22
168 0 13.230271443724291 53.61491289798885 5.22
169 0 16.887028258299054 50.95812355762688 5.22
170 0 9.573514629149528 50.95812355762688 2.61
171 0 13.230271443724291 48.301334217264895 2.61
172 0 13.230271443724291 53.61491289798885 2.61
173 0 16.887028258299054 50.95812355762688 2.61
174 0 9.573514629149528 50.95812355762688 0.0
175 0 13.230271443724291 48.301334217264895 0.0
176 0 13.230271443724291 53.61491289798885 0.0
177 0 16.887028258299054 50.95812355762688 0.0
178 0 8.176757814574763 55.25689901128097 5.22
179 0 11.833514629149526 57.913688351642946 5.22
180 0 8.176757814574763 55.25689901128097 2.61
181 0 11.833514629149526 57.913688351642946 2.61
182 0 8.176757814574763 55.25689901128097 0.0
183 0 11.833514629149526 57.913688351642946 0.0
184 0 5.053514629149532 50.95812355762688 5.22
185 0 3.6567578145747675 55.25689901128097 5.22
186 0 5.053514629149532 50.95812355762688 2.61
187 0 3.6567578145747675 55.25689901128097 2.61
188 0 5.053514629149532 50.95812355762688 0.0
189 0 3.6567578145747675 55.25689901128097 0.0
190 0 8.176757814574763 46.65934810397278 5.22
191 0 3.6567578145747675 46.65934810397278 5.22
192 0 8.176757814574763 46.65934810397278 2.61
193 0 3.6567578145747675 46.65934810397278 2.61
194 0 8.176757814574763 46.65934810397278 0.0
195 0 3.6567578145747675 46.65934810397278 0.0
196 0 11.833514629149526 44.0025587636108 5.22
197 0 11.833514629149526 44.0025587636108 2.61
198 0 11.833514629149526 44.0025587636108 0.0
199 0 42.28054188744858 28.44944306228654 5.22
200 0 45.93729870202334 25.792653721924562 5.22
201 0 45.93729870202334 31.10623240264852 5.22
202 0 49.594055516598104 28.44944306228654 5.22
203 0 42.28054188744858 28.44944306228654 2.61
204 0 45.93729870202334 25.792653721924562 2.61
205 0 45.93729870202334 31.10623240264852 2.61
206 0 49.594055516598104 28.44944306228654 2.61
207 0 42.28054188744858 28.44944306228654 0.0
208 0 45.93729870202334 25.792653721924562 0.0
209 0 45.93729870202334 31.10623240264852 0.0
210 0 49.594055516598104 28.44944306228654 0.0
211 0 40.88378507287381 32.748218515940636 5.22
212 0 44.540541887448576 35.40500785630262 5.22
213 0 40.88378507287381 32.748218515940636 2.61
214 0 44.540541887448576 35.40500785630262 2.61
215 0 40.88378507287381 32.748218515940636 0.0
216 0 44.540541887448576 35.40500785630262 0.0
217 0 37.760541887448575 28.44944306228654 5.22
218 0 36.36378507287381 32.748218515940636 5.22
219 0 37.760541887448575 28.44944306228654 2.61
220 0 36.36378507287381 32.748218515940636 2.61
221 0 37.760541887448575 28.44944306228654 0.0
222 0 36.36378507287381 32.748218515940636 0.0
223 0 40.88378507287381 24.150667608632446 5.22
224 0 36.36378507287381 24.150667608632446 5.22
225 0 40.88378507287381 24.150667608632446 2.61
226 0 36.36378507287381 24.150667608632446 2.61
227 0 40.88378507287381 24.150667608632446 0.0
228 0 36.36378507287381 24.150667608632446 0.0
229 0 44.540541887448576 21.493878268270468 5.22
230 0 44.540541887448576 21.493878268270468 2.61
231 0 44.540541887448576 21.493878268270468 0.0
232 0 37.22702825829905 12.896327360962275 5.22
233 0 40.883785072873806 10.2395380206003 5.22
234 0 40.883785072873806 15.55311670132425 5.22
235 0 44.54054188744857 12.896327360962275 5.22
236 0 37.22702825829905 12.896327360962275 2.61
237 0 40.883785072873806 10.2395380206003 2.61
238 0 40.883785072873806 15.55311670132425 2.61
239 0 44.54054188744857 12.896327360962275 2.61
240 0 37.22702825829905 12.896327360962275 0.0
241 0 40.883785072873806 10.2395380206003 0.0
242 0 40.883785072873806 15.55311670132425 0.0
243 0 44.54054188744857 12.896327360962275 0.0
244 0 35.830271443724286 17.19510281461637 5.22
245 0 39.48702825829905 19.851892154978348 5.22
246 0 35.830271443724286 17.19510281461637 2.61
247 0 39.48702825829905 19.851892154978348 2.61
248 0 35.830271443724286 17.19510281461637 0.0
249 0 39.48702825829905 19.851892154978348 0.0
250 0 32.70702825829905 12.896327360962275 5.22
251 0 31.310271443724286 17.19510281461637 5.22
252 0 32.70702825829905 12.896327360962275 2.61
253 0 31.310271443724286 17.19510281461637 2.61
254 0 32.70702825829905 12.896327360962275 0.0
255 0 31.310271443724286 17.19510281461637 0.0
256 0 35.830271443724286 8.59755190730818 5.22
257 0 31.310271443724286 8.59755190730818 5.22
258 0 35.830271443724286 8.59755190730818 2.61
259 0 31.310271443724286 8.59755190730818 2.61
260 0 35.830271443724286 8.59755190730818 0.0
261 0 31.310271443724286 8.59755190730818 0.0
262 0 39.48702825829905 5.940762566946205 5.22
263 0 39.48702825829905 5.940762566946205 2.61
264 0 39.48702825829905 5.940762566946205 0.0
265 0 68.74108277489715 37.04699396959472 5.22
266 0 72.39783958947191 34.39020462923274 5.22
267 0 72.39783958947191 39.7037833099567 5.22
268 0 76.05459640404666 37.04699396959472 5.22
269 0 68.74108277489715 37.04699396959472 2.61
270 0 72.39783958947191 34.39020462923274 2.61
271 0 72.39783958947191 39.7037833099567 2.61
272 0 76.05459640404666 37.04699396959472 2.61
273 0 68.74108277489715 37.04699396959472 0.0
274 0 72.39783958947191 34.39020462923274 0.0
275 0 72.39783958947191 39.7037833099567 0.0
276 0 76.05459640404666 37.04699396959472 0.0
277 0 67.34432596032238 41.34576942324881 5.22
278 0 71.00108277489716 44.00255876361079 5.22
279 0 67.34432596032238 41.34576942324881 2.61
280 0 71.00108277489716 44.00255876361079 2.61
281 0 67.34432596032238 41.34576942324881 0.0
282 0 71.00108277489716 44.00255876361079 0.0
283 0 64.22108277489716 37.04699396959472 5.22
284 0 62.82432596032238 41.34576942324881 5.22
285 0 64.22108277489716 37.04699396959472 2.61
286 0 62.82432596032238 41.34576942324881 2.61
287 0 64.22108277489716 37.04699396959472 0.0
288 0 62.82432596032238 41.34576942324881 0.0
289 0 67.34432596032238 32.74821851594062 5.22
290 0 62.82432596032238 32.74821851594063 5.22
291 0 67.34432596032238 32.74821851594062 2.61
292 0 62.82432596032238 32.74821851594063 2.61
293 0 67.34432596032238 32.74821851594062 0.0
294 0 62.82432596032238 32.74821851594063 0.0
295 0 71.00108277489714 30.091429175578646 5.22
296 0 71.00108277489714 30.091429175578646 2.61
297 0 71.00108277489714 30.091429175578646 0.0
298 0 81.97135321862143 27.434639835216664 5.22
299 0 85.62811003319621 24.777850494854686 5.22
300 0 85.62811003319621 30.091429175578643 5.22
301 0 89.28486684777096 27.434639835216664 5.22
302 0 81.97135321862143 27.434639835216664 2.61
303 0 85.62811003319621 24.777850494854686 2.61
304 0 85.62811003319621 30.091429175578643 2.61
305 0 89.28486684777096 27.434639835216664 2.61
306 0 81.97135321862143 27.434639835216664 0.0
307 0 85.62811003319621 24.777850494854686 0.0
308 0 85.62811003319621 30.091429175578643 0.0
309 0 89.28486684777096 27.434639835216664 0.0
310 0 80.57459640404667 31.73341528887076 5.22
311 0 84.23135321862144 34.39020462923274 5.22
312 0 80.57459640404667 31.73341528887076 2.61
313 0 84.23135321862144 34.39020462923274 2.61
314 0 80.57459640404667 31.73341528887076 0.0
315 0 84.23135321862144 34.39020462923274 0.0
316 0 77.45135321862143 27.434639835216664 5.22
317 0 76.05459640404668 31.73341528887076 5.22
318 0 77.45135321862143 27.434639835216664 2.61
319 0 76.05459640404668 31.73341528887076 2.61
320 0 77.45135321862143 27.434639835216664 0.0
321 0 76.05459640404668 31.73341528887076 0.0
322 0 80.57459640404667 23.13586438156257 5.22
323 0 76.05459640404668 23.13586438156257 5.22
324 0 80.57459640404667 23.13586438156257 2.61
325 0 76.05459640404668 23.13586438156257 2.61
326 0 80.57459640404667 23.13586438156257 0.0
327 0 76.05459640404668 23.13586438156257 0.0
328 0 84.23135321862144 20.47907504120059 5.22
329 0 84.23135321862144 20.47907504120059 2.61
330 0 84.23135321862144 20.47907504120059 0.0
331 0 61.427569145747626 50.95812355762687 5.22
332 0 65.94756914574762 50.95812355762687 5.22
333 0 62.82432596032239 55.256899011280964 5.22
334 0 67.3443259603224 55.256899011280964 5.22
335 0 61.427569145747626 50.95812355762687 2.61
336 0 65.94756914574762 50.95812355762687 2.61
337 0 62.82432596032239 55.256899011280964 2.61
338 0 67.3443259603224 55.256899011280964 2.61
339 0 61.427569145747626 50.95812355762687 0.0
340 0 65.94756914574762 50.95812355762687 0.0
341 0 62.82432596032239 55.256899011280964 0.0
342 0 67.3443259603224 55.256899011280964 0.0
343 0 57.77081233117286 53.614912897988845 5.22
344 0 59.16756914574763 57.91368835164294 5.22
345 0 57.77081233117286 53.614912897988845 2.61
346 0 59.16756914574763 57.91368835164294 2.61
347 0 57.77081233117286 53.614912897988845 0.0
348 0 59.16756914574763 57.91368835164294 0.0
349 0 57.77081233117286 48.301334217264895 5.22
350 0 54.1140555165981 50.95812355762687 5.22
351 0 57.77081233117286 48.301334217264895 2.61
352 0 54.1140555165981 50.95812355762687 2.61
353 0 57.77081233117286 48.301334217264895 0.0
354 0 54.1140555165981 50.95812355762687 0.0
355 0 62.82432596032239 46.659348103972775 5.22
356 0 59.16756914574763 44.0025587636108 5.22
357 0 62.82432596032239 46.659348103972775 2.61
358 0 59.16756914574763 44.0025587636108 2.61
359 0 62.82432596032239 46.659348103972775 0.0
360 0 59.16756914574763 44.0025587636108 0.0
361 0 67.34432596032238 46.659348103972775 5.22
362 0 67.34432596032238 46.659348103972775 2.61
363 0 67.34432596032238 46.659348103972775 0.0
364 0 77.78108277489716 50.95812355762687 5.22
365 0 82.30108277489715 50.95812355762687 5.22
366 0 79.17783958947192 55.256899011280964 5.22
367 0 83.69783958947191 55.256899011280964 5.22
368 0 77.78108277489716 50.95812355762687 2.61
369 0 82.30108277489715 50.95812355762687 2.61
370 0 79.17783958947192 55.256899011280964 2.61
371 0 83.69783958947191 55.256899011280964 2.61
372 0 77.78108277489716 50.95812355762687 0.0
373 0 82.30108277489715 50.95812355762687 0.0
374 0 79.17783958947192 55.256899011280964 0.0
375 0 83.69783958947191 55.256899011280964 0.0
376 0 74.12432596032238 53.614912897988845 5.22
377 0 75.52108277489715 57.91368835164294 5.22
378 0 74.12432596032238 53.614912897988845 2.61
379 0 75.52108277489715 57.91368835164294 2.61
380 0 74.12432596032238 53.614912897988845 0.0
381 0 75.52108277489715 57.91368835164294 0.0
382 0 74.12432596032238 48.301334217264895 5.22
383 0 70.46756914574763 50.95812355762687 5.22
384 0 74.12432596032238 48.301334217264895 2.61
385 0 70.46756914574763 50.95812355762687 2.61
386 0 74.12432596032238 48.301334217264895 0.0
387 0 70.46756914574763 50.95812355762687 0.0
388 0 79.17783958947192 46.659348103972775 5.22
389 0 75.52108277489715 44.0025587636108 5.22
390 0 79.17783958947192 46.659348103972775 2.61
391 0 75.52108277489715 44.0025587636108 2.61
392 0 79.17783958947192 46.659348103972775 0.0
393 0 75.52108277489715 44.0025587636108 0.0
394 0 83.69783958947191 46.659348103972775 5.22
395 0 83.69783958947191 46.659348103972775 2.61
396 0 83.69783958947191 46.659348103972775 0.0
397 0 94.13459640404668 50.95812355762687 5.22
398 0 98.65459640404667 50.95812355762687 5.22
399 0 95.53135321862143 55.256899011280964 5.22
400 0 100.05135321862144 55.256899011280964 5.22
401 0 94.13459640404668 50.95812355762687 2.61
402 0 98.65459640404667 50.95812355762687 2.61
403 0 95.53135321862143 55.256899011280964 2.61
404 0 100.05135321862144 55.256899011280964 2.61
405 0 94.13459640404668 50.95812355762687 0.0
406 0 98.65459640404667 50.95812355762687 0.0
407 0 95.53135321862143 55.256899011280964 0.0
408 0 100.05135321862144 55.256899011280964 0.0
409 0 90.47783958947191 53.614912897988845 5.22
410 0 91.87459640404668 57.91368835164294 5.22
411 0 90.47783958947191 53.614912897988845 2.61
412 0 91.87459640404668 57.91368835164294 2.61
413 0 90.47783958947191 53.614912897988845 0.0
414 0 91.87459640404668 57.91368835164294 0.0
415 0 90.47783958947191 48.301334217264895 5.22
416 0 86.82108277489715 50.95812355762687 5.22
417 0 90.47783958947191 48.301334217264895 2.61
418 0 86.82108277489715 50.95812355762687 2.61
419 0 90.47783958947191 48.301334217264895 0.0
420 0 86.82108277489715 50.95812355762687 0.0
421 0 95.53135321862143 46.659348103972775 5.22
422 0 91.87459640404668 44.0025587636108 5.22
423 0 95.53135321862143 46.659348103972775 2.61
424 0 91.87459640404668 44.0025587636108 2.61
425 0 95.53135321862143 46.659348103972775 0.0
426 0 91.87459640404668 44.0025587636108 0.0
427 0 100.05135321862144 46.659348103972775 5.22
428 0 100.05135321862144 46.659348103972775 2.61
429 0 100.05135321862144 46.659348103972775 0.0
430 0 53.25081233117287 62.212463805297034 5.22
431 0 57.77081233117286 62.212463805297034 5.22
432 0 54.64756914574763 66.51123925895112 5.22
433 0 59.16756914574763 66.51123925895112 5.22
434 0 53.25081233117287 62.212463805297034 2.61
435 0 57.77081233117286 62.212463805297034 2.61
436 0 54.64756914574763 66.51123925895112 2.61
437 0 59.16756914574763 66.51123925895112 2.61
438 0 53.25081233117287 62.212463805297034 0.0
439 0 57.77081233117286 62.212463805297034 0.0
440 0 54.64756914574763 66.51123925895112 0.0
441 0 59.16756914574763 66.51123925895112 0.0
442 0 49.594055516598104 64.86925314565902 5.22
443 0 50.99081233117287 69.1680285993131 5.22
444 0 49.594055516598104 64.86925314565902 2.61
445 0 50.99081233117287 69.1680285993131 2.61
446 0 49.594055516598104 64.86925314565902 0.0
447 0 50.99081233117287 69.1680285993131 0.0
448 0 49.594055516598104 59.55567446493505 5.22
449 0 45.93729870202334 62.212463805297034 5.22
450 0 49.594055516598104 59.55567446493505 2.61
451 0 45.93729870202334 62.212463805297034 2.61
452 0 49.594055516598104 59.55567446493505 0.0
453 0 45.93729870202334 62.212463805297034 0.0
454 0 54.647569145747624 57.91368835164294 5.22
455 0 50.99081233117287 55.256899011280964 5.22
456 0 54.647569145747624 57.91368835164294 2.61
457 0 50.99081233117287 55.256899011280964 2.61
458 0 54.647569145747624 57.91368835164294 0.0
459 0 50.99081233117287 55.256899011280964 0.0
460 0 58.30432596032239 77.7655795066213 5.22
461 0 62.82432596032239 77.7655795066213 5.22
462 0 59.70108277489715 82.06435496027538 5.22
463 0 64.22108277489716 82.06435496027538 5.22
464 0 58.30432596032239 77.7655795066213 2.61
465 0 62.82432596032239 77.7655795066213 2.61
466 0 59.70108277489715 82.06435496027538 2.61
467 0 64.22108277489716 82.06435496027538 2.61
468 0 58.30432596032239 77.7655795066213 0.0
469 0 62.82432596032239 77.7655795066213 0.0
470 0 59.70108277489715 82.06435496027538 0.0
471 0 64.22108277489716 82.06435496027538 0.0
472 0 54.64756914574763 80.42236884698328 5.22
473 0 56.04432596032239 84.72114430063736 5.22
474 0 54.64756914574763 80.42236884698328 2.61
475 0 56.04432596032239 84.72114430063736 2.61
476 0 54.64756914574763 80.42236884698328 0.0
477 0 56.04432596032239 84.72114430063736 0.0
478 0 54.647569145747624 75.10879016625931 5.22
479 0 50.99081233117287 77.7655795066213 5.22
480 0 54.647569145747624 75.10879016625931 2.61
481 0 50.99081233117287 77.7655795066213 2.61
482 0 54.647569145747624 75.10879016625931 0.0
483 0 50.99081233117287 77.7655795066213 0.0
484 0 59.70108277489715 73.4668040529672 5.22
485 0 56.04432596032239 70.81001471260522 5.22
486 0 59.70108277489715 73.4668040529672 2.61
487 0 56.04432596032239 70.81001471260522 2.61
488 0 59.70108277489715 73.4668040529672 0.0
489 0 56.04432596032239 70.81001471260522 0.0
490 0 64.22108277489716 73.4668040529672 5.22
491 0 64.22108277489716 73.4668040529672 2.61
492 0 64.22108277489716 73.4668040529672 0.0
493 0 63.357839589471915 93.31869520794555 5.22
494 0 67.87783958947192 93.31869520794555 5.22
495 0 64.75459640404668 97.61747066159964 5.22
496 0 69.27459640404668 97.61747066159964 5.22
497 0 63.357839589471915 93.31869520794555 2.61
498 0 67.87783958947192 93.31869520794555 2.61
499 0 64.75459640404668 97.61747066159964 2.61
500 0 69.27459640404668 97.61747066159964 2.61
501 0 63.357839589471915 93.31869520794555 0.0
502 0 67.87783958947192 93.31869520794555 0.0
503 0 64.75459640404668 97.61747066159964 0.0
504 0 69.27459640404668 97.61747066159964 0.0
505 0 59.70108277489716 95.97548454830752 5.22
506 0 61.09783958947192 100.27426000196162 5.22
507 0 59.70108277489716 95.97548454830752 2.61
508 0 61.09783958947192 100.27426000196162 2.61
509 0 59.70108277489716 95.97548454830752 0.0
510 0 61.09783958947192 100.27426000196162 0.0
511 0 59.70108277489715 90.66190586758358 5.22
512 0 56.044325960322396 93.31869520794555 5.22
513 0 59.70108277489715 90.66190586758358 2.61
514 0 56.044325960322396 93.31869520794555 2.61
515 0 59.70108277489715 90.66190586758358 0.0
516 0 56.044325960322396 93.31869520794555 0.0
517 0 64.75459640404668 89.01991975429146 5.22
518 0 61.09783958947192 86.36313041392948 5.22
519 0 64.75459640404668 89.01991975429146 2.61
520 0 61.09783958947192 86.36313041392948 2.61
521 0 64.75459640404668 89.01991975429146 0.0
522 0 61.09783958947192 86.36313041392948 0.0
523 0 69.27459640404668 89.01991975429146 5.22
524 0 69.27459640404668 89.01991975429146 2.61
525 0 69.27459640404668 89.01991975429146 0.0
526 0 40.02054188744858 57.913688351642946 5.22
527 0 44.54054188744858 57.913688351642946 5.22
528 0 41.417298702023345 62.212463805297034 5.22
529 0 40.02054188744858 57.913688351642946 2.61
530 0 44.54054188744858 57.913688351642946 2.61
531 0 41.417298702023345 62.212463805297034 2.61
532 0 40.02054188744858 57.913688351642946 0.0
533 0 44.54054188744858 57.913688351642946 0.0
534 0 41.417298702023345 62.212463805297034 0.0
535 0 36.363785072873824 60.57047769200492 5.22
536 0 37.76054188744858 64.86925314565902 5.22
537 0 36.363785072873824 60.57047769200492 2.61
538 0 37.76054188744858 64.86925314565902 2.61
539 0 36.363785072873824 60.57047769200492 0.0
540 0 37.76054188744858 64.86925314565902 0.0
541 0 36.36378507287382 55.256899011280964 5.22
542 0 32.70702825829906 57.913688351642946 5.22
543 0 36.36378507287382 55.256899011280964 2.61
544 0 32.70702825829906 57.913688351642946 2.61
545 0 36.36378507287382 55.256899011280964 0.0
546 0 32.70702825829906 57.913688351642946 0.0
547 0 41.417298702023345 53.61491289798885 5.22
548 0 37.76054188744858 50.95812355762687 5.22
549 0 41.417298702023345 53.61491289798885 2.61
550 0 37.76054188744858 50.95812355762687 2.61
551 0 41.417298702023345 53.61491289798885 0.0
552 0 37.76054188744858 50.95812355762687 0.0
553 0 45.93729870202334 53.614912897988845 5.22
554 0 45.93729870202334 53.614912897988845 2.61
555 0 45.93729870202334 53.614912897988845 0.0
556 0 26.790271443724297 67.526042486021 5.22
557 0 31.310271443724297 67.526042486021 5.22
558 0 28.18702825829906 71.82481793967509 5.22
559 0 32.70702825829906 71.82481793967509 5.22
560 0 26.790271443724297 67.526042486021 2.61
561 0 31.310271443724297 67.526042486021 2.61
562 0 28.18702825829906 71.82481793967509 2.61
563 0 32.70702825829906 71.82481793967509 2.61
564 0 26.790271443724297 67.526042486021 0.0
565 0 31.310271443724297 67.526042486021 0.0
566 0 28.18702825829906 71.82481793967509 0.0
567 0 32.70702825829906 71.82481793967509 0.0
568 0 23.133514629149534 70.18283182638297 5.22
569 0 24.5302714437243 74.48160728003707 5.22
570 0 23.133514629149534 70.18283182638297 2.61
571 0 24.5302714437243 74.48160728003707 2.61
572 0 23.133514629149534 70.18283182638297 0.0
573 0 24.5302714437243 74.48160728003707 0.0
574 0 23.133514629149534 64.86925314565902 5.22
575 0 19.476757814574775 67.526042486021 5.22
576 0 23.133514629149534 64.86925314565902 2.61
577 0 19.476757814574775 67.526042486021 2.61
578 0 23.133514629149534 64.86925314565902 0.0
579 0 19.476757814574775 67.526042486021 0.0
580 0 28.18702825829906 63.227267032366896 5.22
581 0 24.530271443724295 60.57047769200492 5.22
582 0 28.18702825829906 63.227267032366896 2.61
583 0 24.530271443724295 60.57047769200492 2.61
584 0 28.18702825829906 63.227267032366896 0.0
585 0 24.530271443724295 60.57047769200492 0.0
586 0 32.70702825829906 63.227267032366896 5.22
587 0 32.70702825829906 63.227267032366896 2.61
588 0 32.70702825829906 63.227267032366896 0.0
589 0 13.560001000000014 77.13839662039905 5.22
590 0 18.080001000000014 77.13839662039905 5.22
591 0 14.956757814574779 81.43717207405314 5.22
592 0 19.476757814574775 81.43717207405314 5.22
593 0 13.560001000000014 77.13839662039905 2.61
594 0 18.080001000000014 77.13839662039905 2.61
595 0 14.956757814574779 81.43717207405314 2.61
596 0 19.476757814574775 81.43717207405314 2.61
597 0 13.560001000000014 77.13839662039905 0.0
598 0 18.080001000000014 77.13839662039905 0.0
599 0 14.956757814574779 81.43717207405314 0.0
600 0 19.476757814574775 81.43717207405314 0.0
601 0 9.903244185425251 79.79518596076103 5.22
602 0 11.300001000000016 84.09396141441512 5.22
603 0 9.903244185425251 79.79518596076103 2.61
604 0 11.300001000000016 84.09396141441512 2.61
605 0 9.903244185425251 79.79518596076103 0.0
606 0 11.300001000000016 84.09396141441512 0.0
607 0 9.903244185425251 74.48160728003707 5.22
608 0 6.246487370850488 77.13839662039905 5.22
609 0 9.903244185425251 74.48160728003707 2.61
610 0 6.246487370850488 77.13839662039905 2.61
611 0 9.903244185425251 74.48160728003707 0.0
612 0 6.246487370850488 77.13839662039905 0.0
613 0 14.956757814574779 72.83962116674496 5.22
614 0 11.300001000000016 70.18283182638298 5.22
615 0 14.956757814574779 72.83962116674496 2.61
616 0 11.300001000000016 70.18283182638298 2.61
617 0 14.956757814574779 72.83962116674496 0.0
618 0 11.300001000000016 70.18283182638298 0.0
619 0 19.476757814574775 72.83962116674496 5.22
620 0 19.476757814574775 72.83962116674496 2.61
621 0 19.476757814574775 72.83962116674496 0.0
622 0 40.02054188744858 44.0025587636108 5.22
623 0 44.54054188744858 44.0025587636108 5.22
624 0 41.417298702023345 48.301334217264895 5.22
625 0 45.93729870202334 48.301334217264895 5.22
626 0 40.02054188744858 44.0025587636108 2.61
627 0 44.54054188744858 44.0025587636108 2.61
628 0 41.417298702023345 48.301334217264895 2.61
629 0 45.93729870202334 48.301334217264895 2.61
630 0 40.02054188744858 44.0025587636108 0.0
631 0 44.54054188744858 44.0025587636108 0.0
632 0 41.417298702023345 48.301334217264895 0.0
633 0 45.93729870202334 48.301334217264895 0.0
634 0 36.36378507287382 46.659348103972775 5.22
635 0 36.36378507287382 46.659348103972775 2.61
636 0 36.36378507287382 46.659348103972775 0.0