ITEM: TIMESTEP
0
ITEM: NUMBER OF ATOMS
46031
ITEM: BOX BOUNDS f f f
-0.3312773369724405 100.24649564262366
-0.25967089269726334 102.09959248746918
-0.24950053790430818 104.62376954625917
ITEM: ATOMS id type xu yu zu 
1 0 68.7791896310477 64.81774049408949 -0.018745003246052355
2 0 72.40237203844221 62.2981709404512 0.1257767870101308
3 0 72.43050255188606 67.55957345394226 0.027723582258386864
4 0 75.98646080222265 64.77366727253198 0.1446867475872504
5 0 68.86931517056594 64.99897788873936 2.5772291512493406
6 0 72.53429189707589 62.217575535969445 2.7116789469642497
7 0 72.34969006252066 67.61954060352672 2.7106692193700765
8 0 75.86732365137823 64.83435110422897 2.639818614266634
9 0 68.72924780690626 64.90244759081561 5.202306054953024
10 0 72.30901016484273 62.18951260318259 5.1646296931614
11 0 72.34772406691154 67.56050637647184 5.392478373933211
12 0 76.0852300609078 64.93220487413323 5.194948711242675
13 0 67.23449493836908 69.12623470079632 -0.0003516981106032808
14 0 71.12830200434459 71.83756408947208 0.05185191871111821
15 0 67.51881187871693 69.12131408809334 2.757005283130463
16 0 70.92838322189594 71.87008182063433 2.5551252338496706
17 0 67.45772321284953 69.20011166882587 5.202174796725311
18 0 70.97471667753418 71.93460715930345 5.251111115615108
19 0 64.16995505062721 65.01038421022761 0.13239671330768998
20 0 62.71320365705627 69.17754508608951 -0.1019248541966314
21 0 64.21160291894797 64.71213817841843 2.402020649370545
22 0 62.8951312680935 69.1648880091904 2.5719348014993644
23 0 64.24389652842109 64.85247421068419 5.220483362666836
24 0 62.756723178634886 69.24815245632945 5.108426363832946
25 0 67.28563510725776 60.5064897224799 0.03753169672257899
26 0 62.99364791166788 60.650874732550825 -0.2045316638978549
27 0 67.2465201470189 60.48073481082843 2.542425168868993
28 0 62.960618740476036 60.335214100006304 2.7594177018592028
29 0 67.23769322743256 60.554815262047185 5.080624162766943
30 0 62.64056354809912 60.68085120311161 5.173191796433064
31 0 70.96706595692389 57.883814390645945 0.07381058075624398
32 0 71.04074502425753 57.944761079024346 2.497191650922682
33 0 70.97406250511182 57.94351333362389 5.28033711034155
34 0 82.06419897045326 74.42759159983339 0.034585612371762865
35 0 85.56252593083197 71.85128352248236 0.06863958636696342
36 0 85.68560294933195 77.19441183081653 -0.04068147641453631
37 0 89.22838190983457 74.41435804600792 0.08636767034897729
38 0 82.01409419418373 74.49601286018013 2.5185687659314095
39 0 85.59711478592426 71.72196330358187 2.588321668999922
40 0 85.68534838495087 77.21857709488307 2.5935331065584677
41 0 89.22534474148684 74.48536634058284 2.661539888208921
42 0 82.05736161796165 74.40774464668371 5.053963504797695
43 0 85.72824247140304 71.77492919576606 5.392771572830383
44 0 85.35917470740259 77.24681571623867 5.180047767750702
45 0 89.31080702754834 74.65999826500415 5.204502968301735
46 0 80.41163372789043 78.74509263527317 -0.07476089399977774
47 0 84.39189333218967 81.4376797819192 0.11832111167289228
48 0 80.6366711301978 78.7741340719041 2.5939679620097884
49 0 84.08014192210311 81.27923045101896 2.531148955593871
50 0 80.48888099720725 78.7650446409149 5.108491731423901
51 0 84.10807745089006 81.45203687524318 5.2383736566561065
52 0 77.33590558413785 74.58949798507761 0.062283590208861664
53 0 76.04255630604757 78.74120611181779 0.09945742928893084
54 0 77.33255220417414 74.52108282636729 2.5884966434896777
55 0 76.08270294728214 78.61665156117714 2.506662057116174
56 0 77.51528824434936 74.50303936337279 5.098052890599069
57 0 76.12810406757416 78.98285167046056 5.4250627270306175
58 0 80.53394929096542 70.0944749790037 -0.13031521397262052
59 0 76.02256252797406 70.2059986118058 0.08265226212106998
60 0 80.73125275578838 70.22740295975225 2.6568212524719557
61 0 76.06943404377265 70.0351816201199 2.5694835306105674
62 0 80.56397055293198 70.27381864603112 5.286553111629708
63 0 76.08329062941763 70.16399561672993 5.335047742249476
64 0 84.2921511077913 67.46695180588746 0.024810890950920175
65 0 84.18928920762406 67.49050049512108 2.640194384132521
66 0 84.16178073143907 67.49916211264608 5.220932908177458
67 0 42.28020384718805 73.40191214640264 -0.01831477091098343
68 0 45.882909180238286 70.77336659031062 -0.005387244741630197
69 0 46.03078766984812 76.16120928392584 0.14758561129050415
70 0 49.452423618134674 73.51982768468812 0.08184812759649131
71 0 42.36178680375704 73.44694790206769 2.511274709264199
72 0 45.72273660373749 70.82553541010125 2.5211178417402933
73 0 45.87593989425464 76.1997601272747 2.6031754093055675
74 0 49.73203499391553 73.4903125635376 2.506247922609275
75 0 42.101534993363025 73.4500066027843 5.129003253590442
76 0 45.85705242762375 70.81513571325051 5.223524243345692
77 0 45.86481432242245 76.20374215093283 5.0926856192602585
78 0 49.53785395969908 73.53559938015472 5.220765515353715
79 0 40.95791060806016 77.65632370575273 0.10415773895564716
80 0 44.4658816196277 80.42978063101705 -0.15194049390650424
81 0 40.835298029472725 77.83996258647845 2.5279343435653003
82 0 44.7360749516717 80.50874721574237 2.5545494653868834
83 0 40.91092641979631 77.90022871126826 5.121961762247609
84 0 44.696087530175326 80.35224288224987 5.128593732182372
85 0 37.78543261338347 73.51391722525618 0.062475409569569096
86 0 36.34732535195755 77.72695637636649 0.13229171031986325
87 0 37.770375006555675 73.53927395466813 2.6089407236397815
88 0 36.45448527439999 77.76276364826128 2.749470962496997
89 0 37.87709551580745 73.42790915058693 5.126898226541696
90 0 36.184111146246984 77.7319730214359 5.212456203086508
91 0 40.80591337974981 69.3168361366279 0.09847592692180215
92 0 36.23409001986126 69.26418337096706 -0.05584441588656065
93 0 40.95653456529631 69.10507229581259 2.692084474408334
94 0 36.39579211852752 69.3062481121785 2.492958562798397
95 0 40.955072432638346 69.22731763670255 5.331521359468534
96 0 36.40102867206852 69.27809167721706 5.255681588040957
97 0 44.501296482588074 66.63869493819543 -0.025339863572400985
98 0 44.62981265219373 66.55005006189849 2.6533749964688313
99 0 44.41260208597964 66.60872423819102 5.209428708449526
100 0 37.104034053855436 89.05444924978326 0.1196256279036703
101 0 40.82207160688441 86.51614964277083 0.009923272165860161
102 0 40.89378971730711 91.78650033269585 0.17573815055922037
103 0 44.6911300287946 89.01461737427299 -0.05248562263162728
104 0 37.15954181406338 88.94094897858331 2.807490493557757
105 0 40.755051602986605 86.32767939140004 2.5997300965572245
106 0 40.95770517084633 91.7272958960127 2.608483412509428
107 0 44.60727758073553 88.96924867118831 2.645072289888884
108 0 37.180487403273425 89.06679965445969 5.15351320810821
109 0 40.83919013417464 86.40697393006835 5.244763267627667
110 0 40.8534829236154 91.71451967401333 5.0660581460238845
111 0 44.5258199501534 89.02569728293548 5.2828101128371046
112 0 35.81071811770165 93.42867368784886 -0.09194245507426513
113 0 39.50349619477153 95.87080593689467 0.13714411233972373
114 0 35.918292054745315 93.27505117397037 2.7371115666190566
115 0 39.55187382600268 96.03818845498674 2.434118867979769
116 0 35.9780262176305 93.4215220016429 5.322914690996292
117 0 39.56286621438099 95.92472289562572 5.207948340387347
118 0 32.784509987054435 88.97920281840925 -0.039943049866827667
119 0 31.280264935689825 93.26657066459411 -0.05772075956433788
120 0 32.659685521817046 88.96200498847851 2.539782013310225
121 0 31.2922933859297 93.2377546197286 2.550458698268161
122 0 32.79276750797936 89.07402493676297 5.238941924298294
123 0 31.339200729314157 93.17722505366113 5.374946449167436
124 0 35.790862944446694 84.8575487631996 -0.04920323838110017
125 0 31.387401804856278 84.7507259959928 -0.12721643050279152
126 0 35.910839976558506 84.79706672916532 2.770491494434032
127 0 31.359301080123743 84.69076368351936 2.5169488653018077
128 0 35.76168814777611 84.69561216770197 5.22129056043548
129 0 31.310166881890705 84.64696645069087 5.387437414733628
130 0 39.46647290515583 82.06951484572784 0.14128093399379416
131 0 39.3030338419063 82.02159732184067 2.728737912164708
132 0 39.51136406371524 82.06992533441182 5.236716665105386
133 0 25.995066688888674 50.891357265652715 0.04993347143119697
134 0 29.579624678411566 48.354891832225746 -0.20178515162827748
135 0 29.53675029888 53.664554789594995 -0.0698112437059493
136 0 33.20511902798056 51.08555460263795 0.04578755504374932
137 0 25.87302757083196 51.13153206695445 2.564218438288788
138 0 29.565986040199153 48.438943021210875 2.7251276510439717
139 0 29.463846670111714 53.616391737311496 2.604101848109534
140 0 33.239096105425574 50.88705153558219 2.57911591043367
141 0 25.932555776299164 50.86182089155372 5.262300056334961
142 0 29.488796638041524 48.269964927262926 5.371308215276788
143 0 29.684282472859092 53.52726045318735 5.163831411765488
144 0 33.220264800654945 50.74002480420769 5.25271954962051
145 0 24.575241839862557 55.27339670102487 0.0060317941009513576
146 0 28.324203886837864 57.9564480843242 0.17093475552580423
147 0 24.448912700182465 55.30028978887106 2.4881398016978866
148 0 28.21346120896995 57.908911052955 2.6501402676156425
149 0 24.494315455277643 55.224356983540765 5.137679899946898
150 0 28.210979408498208 57.868401759368105 5.267562778485025
151 0 21.524587544175077 50.92621258938654 -0.05139499309129094
152 0 20.03578650065372 55.30305557139276 0.014344567239273175
153 0 21.42325198228687 50.99101893094449 2.6130776941525085
154 0 20.005928304674402 55.306605300355656 2.6048345691903463
155 0 21.420444084749942 50.937409448795414 5.1950195356933335
156 0 19.998503602339472 55.272127737651445 5.257789979586614
157 0 24.571823125558726 46.580771596824384 0.0800675036690424
158 0 20.160037876388813 46.64593301933787 -0.05856139142717961
159 0 24.548212341727535 46.760775877910916 2.6081863064884288
160 0 19.94442681912506 46.64049988137422 2.5816817496390567
161 0 24.48623787219628 46.59179218054609 5.131182317630772
162 0 20.07855269362666 46.604784905394155 5.232745549918714
163 0 28.083039282885252 43.91069158682052 0.020729463678421076
164 0 28.178708300140787 44.00071271208892 2.5148220945073376
165 0 28.095369724938898 44.104372982878424 5.261919263093422
166 0 9.537397394800642 51.009973758819044 0.17396004606747476
167 0 13.124498010843817 48.31476789289079 -0.03687107135572361
168 0 13.179054695822908 53.73156107752711 -0.08256229246054721
169 0 16.85826214057602 50.838912536442976 0.0036767019172057242
170 0 9.699616271865525 50.97767084301657 2.7066262256581313
171 0 13.205742870683318 48.23496673976541 2.6341928911674093
172 0 13.387211741123284 53.587438169135424 2.6846851978193422
173 0 17.07807631211107 50.802733650306486 2.5997528270738703
174 0 9.773293909910045 51.07070004602571 5.302002494963035
175 0 13.3410718518772 48.30472044167506 5.1690696348224545
176 0 13.280807853587035 53.62664057012407 5.278829185828023
177 0 16.990947374237702 51.022600517715745 5.225712453104653
178 0 8.187732069678555 55.20221759935615 -0.12562551694053511
179 0 11.89086211008153 57.89493922793376 0.02693377739969763
180 0 8.20936411313138 55.209108243828496 2.6720957663712737
181 0 11.880452959961925 57.93802362393306 2.5014523196058054
182 0 8.13195441378205 55.28423641005834 5.3250758919934675
183 0 11.932323623121833 57.948459037004056 5.2355530848072
184 0 5.1290634766528 50.99348818029991 0.046007969911222406
185 0 3.7515336722781147 55.26083199148314 -0.009800264159587001
186 0 5.041936674352711 50.96181487291058 2.5801657266878073
187 0 3.698010726339617 55.17225112040976 2.606879966023836
188 0 4.911537138629872 50.8354548939796 5.115727213135363
189 0 3.5830918128189837 55.29077034008533 5.218465755485411
190 0 8.079207828926938 46.581896046665726 -0.09698171426087485
191 0 3.7868930068409488 46.816380015793975 -0.17080206522369992
192 0 8.290520763934174 46.69882220445361 2.585850033493173
193 0 3.630422379260149 46.522845324335904 2.7856860961944943
194 0 8.205427458100868 46.66037097020768 5.0672769932793535
195 0 3.591216460407031 46.65087044383893 5.360623948222445
196 0 11.880451201873715 44.005917153605715 -0.2136162280598983
197 0 11.905808538887896 43.962649151037134 2.649791182935627
198 0 11.688436809575892 44.09583441352916 5.1210501943850595
199 0 42.18081673209538 28.29427791368128 0.15302361657345073
200 0 45.97173334250996 25.80388631165622 -0.0011948038996153886
201 0 45.82577217933572 31.09921103628854 -0.07636546446614077
202 0 49.67043027326708 28.563408211809904 0.12076981285084945
203 0 42.188114639682745 28.324372773452655 2.6591149821705073
204 0 45.92342016957662 25.857069250718745 2.4717583568752834
205 0 45.944352272753115 31.143330029171317 2.686334181027959
206 0 49.66424161804779 28.43263657529514 2.5862592870224628
207 0 42.117567947549595 28.200694902097478 5.333042355533959
208 0 45.84371605535122 25.745616266242713 5.222588617850399
209 0 45.805650464770075 31.100100173990036 5.09554199927715
210 0 49.63169976350099 28.345521204092808 5.2160580338154645
211 0 40.583432460679866 32.776655334368485 0.24278986190152257
212 0 44.62533662560454 35.33310176605527 -0.07765861632839603
213 0 40.8563311314167 32.77445149036481 2.8098856861509187
214 0 44.44901072965641 35.515093311914356 2.5551886613643746
215 0 40.97095328613567 32.88073996709098 5.193721239224931
216 0 44.486514229101076 35.44522314141169 5.131479973203242
217 0 37.81650908169463 28.470299489053776 0.10928201197447521
218 0 36.221447646916005 32.87208118847812 0.041814192965605144
219 0 37.877891087558034 28.447142522952852 2.773751825620399
220 0 36.250133929274135 32.69358248888803 2.77505817141517
221 0 37.898162422731495 28.5431417449466 5.207013696990571
222 0 36.30445859514698 32.76319017170657 5.191609954659587
223 0 40.969930716030596 24.179444497672296 -0.085928590906291
224 0 36.39748225447583 24.19755936328887 -0.06612784169305956
225 0 40.920575215295024 24.041168846002293 2.5749410089263502
226 0 36.41124362996 24.21846989286019 2.636963657385178
227 0 40.87403693316519 24.1102795107127 5.203480714576143
228 0 36.334148498385 24.149836743357362 4.985027062134654
229 0 44.501216935995984 21.438784876255998 0.09585371434913378
230 0 44.54193475243493 21.52466734093843 2.57581239713705
231 0 44.51501953426211 21.3184015748073 5.274110641172573
232 0 37.31563109042213 12.922562617947714 -0.054966074615724024
233 0 40.80080069632172 10.164329021142844 -0.1048707069556618
234 0 40.845260862973376 15.583159209317582 0.031472717922621775
235 0 44.54900155734518 12.923331186421056 -0.11509443652459775
236 0 37.06465374963179 12.668750137829107 2.4930848831089776
237 0 40.97312312026591 10.206131157642453 2.575323309271652
238 0 40.822806222752455 15.471802449999727 2.655126386318229
239 0 44.545058124064525 12.741762644906533 2.7530866678079975
240 0 37.284620327990034 12.80538275405232 5.184883875879839
241 0 40.81557387219217 10.119367933922385 5.208100622807732
242 0 41.045129567496076 15.626832037384087 5.156630279229624
243 0 44.655191108523205 12.891139837295457 5.248674726403094
244 0 35.97651336677423 17.25135192087556 0.08424325966254863
245 0 39.74374359467254 19.980169186563817 0.021014463108172485
246 0 35.92601603342274 17.105070349664746 2.6488511011569247
247 0 39.43005993307274 19.92587578113458 2.61462168246232
248 0 35.795461263878714 17.190430594734156 5.217375205952649
249 0 39.47580105673844 19.855214504208963 5.055890632622818
250 0 32.66266757982289 12.727090383425429 0.04525178108706957
251 0 31.1439344321923 17.202785165519654 -0.02031795337367401
252 0 32.86091711994997 12.865450284712518 2.483014705553767
253 0 31.167835224993084 17.101329819440824 2.556060905207465
254 0 32.802501754372706 12.935562778970956 5.173657013384632
255 0 31.27585943295891 17.30119576505981 5.183364074846662
256 0 35.76626408865138 8.732308345770187 0.013417315782232325
257 0 31.175362283230044 8.53906249363228 0.04361643104720376
258 0 35.88664839267039 8.758389730285923 2.6870748237640063
259 0 31.163134015157112 8.484646634701068 2.5258355408501587
260 0 35.81082458844423 8.602313076570493 5.1186666781887755
261 0 31.249477003992858 8.65666861623068 5.210705115184342
262 0 39.47390788749466 6.001641492054347 0.025049611099150045
263 0 39.50633818455409 5.897856241842559 2.5235884722443918
264 0 39.464374872175846 5.957904293470312 5.282466031355476
265 0 68.70811297732351 37.2422728372355 0.03293783233992221
266 0 72.46635417844895 34.24279707599955 0.10178637602157661
267 0 72.43682278383967 39.60335492087383 0.02883331269372809
268 0 76.2236477599733 37.09653053356523 0.0009993485389650383
269 0 68.71211526532872 37.051957098103856 2.5469595479475142
270 0 72.49576889768339 34.26407056663047 2.4973693302813076
271 0 72.38492884240951 39.63076166620288 2.5555844322710635
272 0 76.06439042805961 36.95699039976945 2.4358168551524684
273 0 68.94840249334415 37.09741751512815 5.21386569361888
274 0 72.3313751793184 34.25562802961428 5.225281356246146
275 0 72.28619347348956 39.57059092904539 5.215744488756854
276 0 76.22726271251102 36.94168258277619 5.218720939167185
277 0 67.234455077336 41.27497912177885 0.08451643639968805
278 0 70.96304050895212 44.00149178433679 0.016719758512412374
279 0 67.45288589048579 41.52038634695331 2.605440103853162
280 0 71.13131993574392 44.00806991400612 2.576661969239008
281 0 67.39413327552677 41.274121263307244 5.196563511007793
282 0 70.97089487588501 43.884975994931565 5.29499803931657
283 0 64.25300949660367 37.07139855465711 0.1741201408067993
284 0 62.79410958692216 41.35417454453776 -0.032463923046238914
285 0 64.24489787961122 36.94831669817183 2.5313078693536077
286 0 63.00270568893297 41.40448249177309 2.406105081933652
287 0 64.12237427620897 36.928504634221625 5.20833459036713
288 0 62.83826970313164 41.32243040387022 5.089026673168073
289 0 67.49537422712419 32.83236008264606 0.06807768470522126
290 0 62.80194624480068 32.65624810210467 -0.00710175315535743
291 0 67.3641190892805 32.597680867290215 2.6163076592124193
292 0 62.611343650847616 32.86865397516858 2.531394508927663
293 0 67.31974371760603 32.763093813387094 5.110284072669421
294 0 62.89436702989322 32.57801432351113 5.332110143916201
295 0 71.00013387589627 29.988121780891532 -0.1170956838763648
296 0 70.96163819434688 30.067176799041516 2.526646964920371
297 0 70.97907945864355 29.99102638851229 5.12364438311598
298 0 82.00296439167603 27.27149393756412 -0.05229378158083016
299 0 85.57730552671265 24.705768080277554 0.0026490797507314613
300 0 85.73248394754216 30.137067256680755 -0.06664427003808777
301 0 89.25813309463761 27.414219612014534 0.09417455725444082
302 0 81.87132242489639 27.436980395093528 2.5022029286161853
303 0 85.4447533863459 24.87158250742895 2.743327321576234
304 0 85.50468378465068 30.32375652203382 2.652036709487943
305 0 89.30431536140699 27.53472774955508 2.5317338352775214
306 0 81.92066632590972 27.571706583680236 4.996797797343798
307 0 85.525703882464 24.8722464202057 5.187556814274278
308 0 85.56926463038053 30.069111080937862 5.2612522282118475
309 0 89.27755897934054 27.47411169516882 5.141369834656716
310 0 80.788849703219 31.796868858452562 0.012695140290031378
311 0 84.0825878703063 34.39507988127524 0.02137778760837324
312 0 80.58151095269831 31.659122202628797 2.723574583605026
313 0 84.16392512890458 34.43977232955788 2.687341917974109
314 0 80.62450588687402 31.655114892917084 5.257174215843009
315 0 84.16565940611541 34.53730269496071 5.3291191167954866
316 0 77.55372028030058 27.45680122850198 0.16701724588316644
317 0 76.04738654171211 31.702015596602397 0.019003871251849404
318 0 77.56870344133455 27.45759417336547 2.522862315442564
319 0 76.09692260351548 31.763863894525688 2.5054884154344523
320 0 77.42872791409076 27.505341797486892 5.141342597231953
321 0 76.05282498631084 31.719895962529296 5.199816142576487
322 0 80.5376685528346 23.106343278887895 -0.07977249390553134
323 0 76.14967390036266 23.268414950261732 -0.044579252437318966
324 0 80.59411842210243 23.22771313305103 2.6567369959011615
325 0 76.00804705945633 23.089182176170816 2.6482723317358356
326 0 80.5678820133658 23.09128632347811 5.17030734115375
327 0 76.1179565902957 23.23874031473619 5.200206146735199
328 0 84.1462846519538 20.447913291859454 0.08545189063756034
329 0 84.32674317894386 20.56490000410177 2.6601914112780674
330 0 84.30364451545883 20.40833588945314 5.106100113688854
331 0 61.43510515826096 50.927849640509685 0.04885744917088333
332 0 65.93740046282232 50.8435346673391 0.0024089375044238884
333 0 62.81931972493371 55.22297062410555 -0.042656401785806985
334 0 67.18722912095836 55.068507903885404 0.12958453521273114
335 0 61.42655656863327 51.17220937056362 2.6001769759196844
336 0 65.95853985924944 50.981037782124716 2.6477488523916866
337 0 62.83940753782143 55.13613376999727 2.7100694446973543
338 0 67.1819140638688 55.366998033766215 2.64158033661157
339 0 61.380977373007525 51.013840896301645 5.034229720199081
340 0 65.83741654384102 51.01203831639129 5.241186618719782
341 0 62.843270491957625 55.222929247406135 5.15842092249219
342 0 67.33933719010889 55.244747765524274 5.351977915162245
343 0 57.808387818628404 53.61580393794739 0.11265334813701117
344 0 59.295973678678315 57.92803811878206 -0.14987157990860825
345 0 57.587594160487676 53.59927173211048 2.552118586625703
346 0 59.19480498163079 57.971607892122414 2.600410544103001
347 0 57.770371854101576 53.524679737389576 5.145037460527133
348 0 59.29475597736272 57.840369090250434 5.100303860521027
349 0 57.76466857963967 48.266135278565976 -0.005299423173239942
350 0 54.19025902688435 50.87179908831567 -0.06396005628650384
351 0 57.74805602474014 48.20782754311921 2.7403840552839562
352 0 54.116545804202595 51.05581012600676 2.6336116658026065
353 0 57.76496569104798 48.24070959334828 5.197554772389303
354 0 54.06259459431602 51.03859353420061 5.355642955652029
355 0 62.65780122798389 46.68473435533105 -0.1441146936881152
356 0 59.11378379824461 44.14063572948712 0.04945566478725446
357 0 62.79427101233348 46.52688932884727 2.5027136202820843
358 0 59.078284559968424 43.89511317739642 2.6974186958342345
359 0 62.80685508149037 46.70002454345056 5.105049205346913
360 0 59.33529599117861 44.035876775991554 5.3908347994509676
361 0 67.37967038316164 46.69720437122035 0.0168198782555609
362 0 67.49716883166771 46.76404486612793 2.636705594297154
363 0 67.32348219122939 46.672815837797415 5.136111897596044
364 0 77.98207834828085 51.11811839961088 -0.0416604145159765
365 0 82.27390502465923 51.042065070110795 -0.1239080608684254
366 0 79.25844697823455 55.302508503037245 -0.06178211118369488
367 0 83.71713405000585 55.15784331563976 0.03501716254623692
368 0 77.70533113144414 51.02577092587431 2.678005860502926
369 0 82.3892787357875 50.983899619300544 2.681419568865517
370 0 79.28991402781375 55.14018086158781 2.5048486221060466
371 0 83.50946760744368 55.17100687634694 2.6896820251759674
372 0 77.9944765866531 51.08708598559964 5.1697352595320805
373 0 82.2730588396687 50.90576468339682 5.131563639571702
374 0 79.16994934851152 55.23861820328152 5.312665333369798
375 0 83.70425903034044 55.31217203604323 5.043929965818033
376 0 74.08764891827938 53.541005502768606 -0.06411389121390618
377 0 75.66476029546656 57.89132649235389 -0.09016589281886211
378 0 74.16627177140978 53.55400176586771 2.5817008751580826
379 0 75.50397748160316 57.93308053458616 2.613646440659717
380 0 74.18624303657815 53.567949463210354 5.050808602658172
381 0 75.5423212495929 58.013893154430335 5.221051174438425
382 0 74.14358735729752 48.37303789974741 0.029372178128625907
383 0 70.50552090404119 50.91379704499899 -0.0722414925589102
384 0 74.04413646118705 48.37586213174525 2.6709031104577226
385 0 70.61005541103081 50.94296202760238 2.601774280914118
386 0 74.18056781099496 48.413098087063524 5.138338022726687
387 0 70.2259917371395 50.93671170934836 5.3248495110549365
388 0 79.16179182561443 46.68706421200904 0.1345802703348811
389 0 75.63826411017932 44.017279421474434 0.16255596545644066
390 0 79.1751087488695 46.69280228518786 2.531625676811556
391 0 75.55504427369029 44.00022041279692 2.675211925462029
392 0 79.03576783060313 46.842447959539825 5.243781105992338
393 0 75.52832425794392 44.049858544428176 5.263947739604046
394 0 83.72905152842924 46.50064348242 -0.04424153807343472
395 0 83.66622064025474 46.69663117098321 2.553604506101777
396 0 83.69870606010592 46.77610888628503 5.139795299274507
397 0 93.88621595721925 50.978211464426835 0.03927711354194367
398 0 98.59590449339726 51.07848748655069 0.02077310493999811
399 0 95.51539418459136 55.28515431453897 -0.15592699130841203
400 0 100.1398120494554 55.28559075724085 -0.015647165190406678
401 0 94.15176269702866 50.873672657864475 2.520478188636543
402 0 98.618506601901 50.965712310759734 2.6210320541644037
403 0 95.47329988339303 55.20949935080986 2.6741570554727336
404 0 100.01637359981322 55.16894401402702 2.6349229813405155
405 0 94.12544773842374 50.79557630365118 5.036483500631604
406 0 98.5685300537937 51.077595713259655 5.250660720082501
407 0 95.72221982284998 55.49600747222191 5.129759068788617
408 0 100.05204381947318 55.39487876262473 5.318268783264106
409 0 90.56132356740648 53.588186691119276 -0.007523612381325667
410 0 91.81921975514364 58.026785043486775 -0.005824501896929898
411 0 90.48329850730221 53.68183766004505 2.460358921545445
412 0 91.88593298870738 57.901219175286265 2.4803273093024014
413 0 90.45459259099172 53.52984387558589 5.171763264596422
414 0 91.7299577786319 58.07407364345177 5.132147167766779
415 0 90.44870693919289 48.3042222272141 -0.010544675523037707
416 0 86.73169934673915 51.00624703583297 0.01467858369599852
417 0 90.49661128855544 48.170490387647284 2.7944638487919544
418 0 86.68673301691666 50.86862704047627 2.599577924044578
419 0 90.39718783256713 48.244011109442845 5.339500674129998
420 0 86.82462267913408 50.9207130504731 5.2177758887370995
421 0 95.52281749772004 46.649274977188725 -0.023366803451121992
422 0 91.98519973703227 43.86783361285547 -0.15946392568232393
423 0 95.4351483530746 46.70147827680959 2.6174645552576883
424 0 91.82262625977675 43.91505343691903 2.574830031826419
425 0 95.57214291232728 46.669045092216614 5.214426864215768
426 0 91.93805744886058 43.95105011874429 5.103345494569344
427 0 99.96083426094444 46.90763730941921 -0.01535242040144796
428 0 100.0626554373986 46.585200372555526 2.607294376745432
429 0 99.96898018122481 46.57638293487401 5.210419999937675
430 0 53.25608738616332 62.301351239727055 -0.13790139477039315
431 0 57.73447184876793 62.42741170181873 0.07107835846387008
432 0 54.59883041175449 66.35849530425287 -0.003912958501217405
433 0 59.06174251549965 66.35683460694892 0.06891376118024202
434 0 53.263885342830314 62.16046135581107 2.568419202809661
435 0 57.74383174671789 62.19423113848979 2.8207120416206055
436 0 54.66346218588481 66.6177530236106 2.520087547781456
437 0 59.09990235384419 66.56752950146421 2.581598370331802
438 0 53.104891430113504 62.15526629618653 5.152629762980117
439 0 57.82626160277811 62.174085748639506 5.146581378509626
440 0 54.59353290787485 66.42838827712875 5.338417541983499
441 0 59.10917621987625 66.34949158870621 5.245145835151799
442 0 49.72242239229681 64.66550329564026 -0.030321351714170337
443 0 51.123270384632654 69.13606113148339 0.04101675072648422
444 0 49.44996231556267 64.81440827567954 2.621720474777592
445 0 51.124549941898216 69.1391153019171 2.4850024187221664
446 0 49.37019088432709 64.80759107521456 5.401046807738081
447 0 51.07146790157342 69.02402161567252 5.23148497054984
448 0 49.54620889611695 59.59921953694533 -0.13658783510659514
449 0 45.86087318465606 62.12210061326252 -0.020507069030684767
450 0 49.55582141755167 59.58141418676608 2.494230226314549
451 0 46.05457534599133 62.208198761287406 2.6873912504028468
452 0 49.607155058043936 59.30065398114221 5.113001709714388
453 0 45.84750105130758 62.108478201194416 5.084099362221214
454 0 54.726007469477246 57.879658699120526 -0.06636629258623224
455 0 51.10544898927379 55.119545513865695 0.06727139037516747
456 0 54.683134192723244 57.96584450164221 2.6229907297553936
457 0 51.122057185158724 55.28180420767937 2.6707741634623026
458 0 54.64243089651893 57.915499710634634 5.185769659421457
459 0 51.05330065137988 55.456748003498504 5.121131261616403
460 0 58.36301508575212 77.81353955664116 -0.02907122040862431
461 0 62.91251788087004 77.91768932650821 -0.032439176171433534
462 0 59.642050984441205 82.16734831609931 0.03920155574668741
463 0 64.15500191763797 81.95009166672189 -0.060620891535431085
464 0 58.271820909898395 77.76450164640531 2.701722261964834
465 0 62.91928142427723 77.73070338156322 2.6963219396203786
466 0 59.73208014834887 82.0415666173267 2.5673732318849876
467 0 64.11161516956399 82.06633741178013 2.4532336350733956
468 0 58.39640753286857 77.87640356030863 5.143019824053216
469 0 62.864850928104985 77.9256845873021 5.43553196443719
470 0 59.68894117683418 82.12532767705586 5.081485729254239
471 0 64.07475108425317 82.08705382120466 5.243970911332639
472 0 54.62249867787627 80.33085169959148 0.003566291381933856
473 0 56.080905641800626 84.56803854978517 0.058546273538374966
474 0 54.72138243609063 80.38515303540302 2.6873490403663967
475 0 56.10260287416137 84.76236371166426 2.729647998486301
476 0 54.64888612168496 80.46959635090057 5.357873538492669
477 0 56.057638597951744 84.85368741843263 5.066679373234495
478 0 54.59325982478199 75.04253235252943 0.13368832642629183
479 0 51.00284697890875 77.84706721475445 0.09184961388921366
480 0 54.61774356924903 75.20028261812874 2.7330761563387274
481 0 50.88354129358816 77.70960013770063 2.6682757152416086
482 0 54.66777349319452 75.17407554543388 5.28283551376314
483 0 51.16652910785835 77.720664664319 5.206468687799489
484 0 59.78008800443433 73.58034030942184 0.008954738433126256
485 0 56.101293151779224 70.73628816683934 0.07090717259272489
486 0 59.577658967628736 73.45215644007335 2.578993059612871